/*--------------------------------*- C++ -*----------------------------------*\
| =========                 |                                                 |
| \\      /  F ield         | OpenFOAM: The Open Source CFD Toolbox           |
|  \\    /   O peration     | Version:  3.0.1                                 |
|   \\  /    A nd           | Web:      www.OpenFOAM.org                      |
|    \\/     M anipulation  |                                                 |
\*---------------------------------------------------------------------------*/
FoamFile
{
    version     2.0;
    format      ascii;
    class       volTensorField;
    location    "50000";
    object      grad(Usqr);
}
// * * * * * * * * * * * * * * * * * * * * * * * * * * * * * * * * * * * * * //

dimensions      [0 0 -1 0 0 0 0];

internalField   nonuniform List<tensor> 
2500
(
(0 0 0 -0.0109963898184 9.14408314411e-24 -4.41783096758e-26 -0.0109960302144 -4.76271780694e-26 9.0931418321e-24)
(0 0 0 -0.0322802472991 2.08412367239e-23 -1.26091244448e-25 -0.0109968430588 -4.05029608211e-25 8.66850284908e-24)
(0 0 9.56444962883e-40 -0.0520759391992 3.20689879511e-23 -1.95135873244e-25 -0.0110005549985 -1.02366344477e-24 7.91624958557e-24)
(0 0 0 -0.070349904616 4.03552858733e-23 -2.45017787759e-25 -0.0110089543854 -1.82681856462e-24 6.93640226227e-24)
(0 0 0 -0.0872471045109 4.54083206302e-23 -2.72619451966e-25 -0.0110217936272 -2.75734830243e-24 5.84294394587e-24)
(5.32530048824e-15 2.81919060473e-37 1.10124632997e-39 -0.103018095088 4.73185490758e-23 -2.84692841722e-25 -0.0110364583811 -3.69165784202e-24 4.72590856286e-24)
(0 1.47741535025e-37 5.77115371193e-40 -0.11795567971 4.64637918304e-23 -2.80445350979e-25 -0.0110485486959 -4.59996619228e-24 3.64369880197e-24)
(5.85006167969e-15 1.54849843318e-37 6.0488220046e-40 -0.132354743602 4.31832450883e-23 -2.6125728066e-25 -0.0110527390982 -5.44002052733e-24 2.66116797812e-24)
(0 0 0 -0.146492303752 3.79270057392e-23 -2.3128438533e-25 -0.011043555818 -6.16530828539e-24 1.80828836968e-24)
(0 0 0 -0.160620373401 3.11369155405e-23 -1.91215076395e-25 -0.0110159552906 -6.78675559856e-24 1.11200260242e-24)
(0 0 0 -0.17496551631 2.32692794923e-23 -1.44769307092e-25 -0.0109657077092 -7.24711207128e-24 5.82985474138e-25)
(0 0 0 -0.189731360438 1.47316199362e-23 -9.33231073049e-26 -0.0108896233593 -7.56621498378e-24 2.2500134799e-25)
(0 3.9172526431e-37 5.97725317856e-42 -0.205102178213 5.90688013967e-24 -3.82890122436e-26 -0.0107856584065 -7.74802407002e-24 3.59686610088e-26)
(0 0 0 -0.221246725395 -2.82368052529e-24 1.84754985887e-26 -0.0106529277428 -7.78419757865e-24 7.99210906367e-27)
(0 0 0 -0.238322079841 -1.12772902047e-23 7.60146351562e-26 -0.0104916449407 -7.69982131562e-24 1.30098960722e-25)
(0 0 0 -0.25647746608 -1.92417634416e-23 1.32942617404e-25 -0.0103030059807 -7.5163971885e-24 3.88618684073e-25)
(0 0 0 -0.275858142478 -2.65507885963e-23 1.88249540105e-25 -0.010089031942 -7.2492783983e-24 7.67924698138e-25)
(0 0 0 -0.296609449983 -3.30842673431e-23 2.41238161908e-25 -0.00985238565661 -6.90366320176e-24 1.25178474507e-24)
(0 0 0 -0.318881119281 -3.87455790873e-23 2.90919619169e-25 -0.00959617680315 -6.50647689414e-24 1.82389045669e-24)
(0 0 0 -0.342831930034 -4.3517868224e-23 3.36563214211e-25 -0.00932376933158 -6.07267183597e-24 2.46733857119e-24)
(0 0 0 -0.368634821488 -4.73804534e-23 3.77689900801e-25 -0.0090386022075 -5.61191242153e-24 3.16682600382e-24)
(0 0 0 -0.396482571746 -5.03396894022e-23 4.13645150662e-25 -0.00874403255091 -5.13860105257e-24 3.90522601669e-24)
(0 0 0 -0.426594197913 -5.2430837233e-23 4.4411633015e-25 -0.00844320642552 -4.66026328121e-24 4.668882414e-24)
(0 0 0 -0.45922227972 -5.36872470646e-23 4.68151761471e-25 -0.00813895998204 -4.1910377992e-24 5.44448824355e-24)
(0 0 0 -0.494661476367 -5.41523671569e-23 4.85451468856e-25 -0.00783375016448 -3.73455963844e-24 6.21833270047e-24)
(0 0 0 -0.533258591165 -5.38967377864e-23 4.95404321919e-25 -0.00752961283594 -3.29669783255e-24 6.97754412558e-24)
(0 0 0 -0.575424641763 -5.29892920956e-23 4.96831963782e-25 -0.0072281438594 -2.88655773324e-24 7.71189153485e-24)
(0 0 0 -0.62164951498 -5.15013119609e-23 4.89283995973e-25 -0.00693049841393 -2.50354006029e-24 8.40828394806e-24)
(0 0 0 -0.672519916302 -4.95074544574e-23 4.72581215539e-25 -0.00663740296706 -2.14558933716e-24 9.05648591009e-24)
(0 0 0 -0.728741448116 -4.70712930957e-23 4.45542315334e-25 -0.00634917488288 -1.81642611962e-24 9.64713913598e-24)
(0 0 0 -0.791165708022 -4.42680710573e-23 4.05743459795e-25 -0.00606574422544 -1.52381144946e-24 1.0169484213e-23)
(0 0 0 -0.860823160955 -4.11729335401e-23 3.51854013391e-25 -0.00578667297938 -1.26508066889e-24 1.0614095343e-23)
(0 0 0 -0.938961898928 -3.78503663691e-23 2.82313269646e-25 -0.00551116652382 -1.03749551001e-24 1.09702917288e-23)
(0 0 0 -1.02709055862 -3.43714919285e-23 1.95486879409e-25 -0.00523807159883 -8.37632447988e-25 1.1227915538e-23)
(0 0 0 -1.12701903411 -3.07974145731e-23 8.86501548156e-26 -0.0049658536114 -6.64638563221e-25 1.13763826181e-23)
(0 0 0 -1.24087958076 -2.71866542082e-23 -4.18768024762e-26 -0.00469254277097 -5.18285316891e-25 1.14038798853e-23)
(0 0 0 -1.37108521011 -2.36032321137e-23 -1.99846537813e-25 -0.00441563315499 -3.95778708803e-25 1.12981437953e-23)
(0 0 0 -1.52012332649 -2.01025450401e-23 -3.89698882736e-25 -0.00413191005912 -2.94537158787e-25 1.10452328991e-23)
(0 0 0 -1.68995021952 -1.67397221003e-23 -6.16586953655e-25 -0.00383716832954 -2.12764262069e-25 1.06301550043e-23)
(0 0 0 -1.88047157087 -1.35674716305e-23 -8.84918141991e-25 -0.00352578008364 -1.48413313453e-25 1.00365059385e-23)
(0 0 0 -2.08609394276 -1.0636960564e-23 -1.19507166482e-24 -0.00319012618565 -9.92016718959e-26 9.24896923204e-24)
(0 0 0 -2.28891866254 -8.00186099218e-24 -1.53613061996e-24 -0.00282023891262 -6.28703343223e-26 8.2573328936e-24)
(0 0 0 -2.44901347712 -5.71238620816e-24 -1.87308961145e-24 -0.00240523532623 -3.74167223487e-26 7.06769699891e-24)
(0 0 0 -2.50175804986 -3.81403337578e-24 -2.13535804278e-24 -0.00194077088744 -2.04915108549e-26 5.72081170745e-24)
(0 0 0 -2.38435800811 -2.336833396e-24 -2.23426768373e-24 -0.0014455932137 -9.99302504168e-27 4.30953544083e-24)
(0 0 0 -2.08696934048 -1.2806633272e-24 -2.11970149955e-24 -0.00097068462267 -4.22297318019e-27 2.96731820205e-24)
(0 0 0 -1.66585425553 -6.03647303507e-25 -1.81509433403e-24 -0.000573163566249 -1.43397584958e-27 1.81689499489e-24)
(0 0 0 -1.19341954309 -2.26281603674e-25 -1.38268767182e-24 -0.000281829869983 -3.37290185258e-28 9.30420076243e-25)
(0 0 0 -0.713088380568 -5.68135747045e-26 -8.71001345736e-25 -9.75750697523e-05 -3.66085891582e-29 3.35566080321e-25)
(0 0 0 -0.296270901186 -6.42017884815e-27 -3.78387628769e-25 -1.05618460084e-05 -9.83157327645e-32 3.80749906829e-26)
(0 0 0 -0.0109972026628 8.69361266075e-24 -3.82488657602e-25 -0.032279307393 -1.33580586802e-25 2.08097439586e-23)
(0 0 0 -0.0322849506762 1.98354360445e-23 -1.09278242278e-24 -0.0322840077342 -1.1346373803e-24 1.98157251777e-23)
(0 0 0 -0.052089056804 3.05382907592e-23 -1.67867086927e-24 -0.0322990177311 -2.88866004067e-24 1.80764298377e-23)
(0 0 0 -0.070373914732 3.84015792717e-23 -2.10163510944e-24 -0.0323291765305 -5.16832742076e-24 1.58402101462e-23)
(0 0 0 -0.087279584872 4.32093950947e-23 -2.34692796854e-24 -0.0323736081104 -7.77374343458e-24 1.33376803255e-23)
(5.58151738504e-15 1.47741535025e-37 0 -0.103051084903 4.5042152644e-23 -2.44524458892e-24 -0.0324247169768 -1.0434957999e-23 1.07771141604e-23)
(0 0 0 -0.117976527472 4.42012436954e-23 -2.40381930127e-24 -0.0324697697676 -1.30233499929e-23 8.31193457969e-24)
(0 -1.62300154603e-37 -5.07187983134e-39 -0.13234753874 4.10617914367e-23 -2.23836026373e-24 -0.0324932992401 -1.54198826112e-23 6.06593258657e-24)
(0 0 0 -0.14643934764 3.60141778189e-23 -1.97843970443e-24 -0.0324793046993 -1.75039507301e-23 4.1215404684e-24)
(6.73573410401e-15 1.78293397189e-37 1.39291716554e-39 -0.160503478604 2.95291753008e-23 -1.63909852722e-24 -0.032412909986 -1.92331244721e-23 2.53268701793e-24)
(0 0 0 -0.174767093288 2.2056063524e-23 -1.24210153424e-24 -0.0322814801264 -2.05394713201e-23 1.32502745082e-24)
(7.39948103457e-15 1.95862632152e-37 3.82544203422e-40 -0.18943530437 1.39162368952e-23 -8.00661106843e-25 -0.0320752983404 -2.14418595876e-23 5.09950531913e-25)
(7.75549325837e-15 2.05286197251e-37 5.01187005008e-41 -0.204694570804 5.5384413499e-24 -3.29613949581e-25 -0.0317879040069 -2.19273260407e-23 8.04625190049e-26)
(0 0 0 -0.220716355636 -2.73182887079e-24 1.58132887569e-25 -0.0314161671713 -2.20420489437e-23 1.89931752459e-26)
(0 0 0 -0.237660780823 -1.07677266788e-23 6.515275877e-25 -0.0309601543312 -2.18291158953e-23 2.99682332358e-25)
(0 0 0 -0.255680265619 -1.83470880774e-23 1.13984321626e-24 -0.0304228293967 -2.13158637989e-23 8.90901996496e-25)
(0 0 0 -0.27492323168 -2.52772169197e-23 1.61419508491e-24 -0.0298096303347 -2.05593965319e-23 1.75717421925e-24)
(0 0 0 -0.295537983454 -3.14682907203e-23 2.06786814172e-24 -0.0291279619408 -1.9592448996e-23 2.86154896245e-24)
(0 0 0 -0.31767687162 -3.68518904418e-23 2.4934269913e-24 -0.0283866452105 -1.84722336942e-23 4.16563596551e-24)
(0 0 0 -0.341500840495 -4.13819243894e-23 2.88627510859e-24 -0.0275953619595 -1.72340278844e-23 5.63273700707e-24)
(0 0 0 -0.367184463078 -4.50437913149e-23 3.23780344268e-24 -0.0267641288052 -1.59355321016e-23 7.22576057522e-24)
(0 0 0 -0.394921581612 -4.7844991543e-23 3.54397105815e-24 -0.0259028273586 -1.46040809901e-23 8.91060822264e-24)
(0 0 0 -0.424931702305 -4.98282489824e-23 3.80575261808e-24 -0.0250208093978 -1.3241802605e-23 1.06529763913e-23)
(0 0 0 -0.457467339981 -5.10226288012e-23 4.01472233988e-24 -0.0241265866924 -1.18974063244e-23 1.24213586576e-23)
(0 0 0 -0.492822574615 -5.14546157808e-23 4.1624779226e-24 -0.0232276066526 -1.06033853722e-23 1.41866399885e-23)
(0 0 0 -0.531343165513 -5.1216439993e-23 4.24984088553e-24 -0.0223301085562 -9.354509172e-24 1.59195155297e-23)
(0 0 0 -0.573438671745 -5.03618170306e-23 4.26640732834e-24 -0.0214390498133 -8.17843496292e-24 1.75941235603e-23)
(0 0 0 -0.619597149789 -4.89286033566e-23 4.20150776349e-24 -0.0205580884238 -7.09256419757e-24 1.91848851413e-23)
(-4.11225507825e-15 -5.44252427936e-38 -1.36063106984e-38 -0.670403130921 -4.70074230173e-23 4.05614516823e-24 -0.0196896065459 -6.08063125099e-24 2.06673397302e-23)
(0 -5.70438117983e-38 -1.42609529496e-38 -0.726559704364 -4.4701078412e-23 3.8173961905e-24 -0.0188347593898 -5.15709922454e-24 2.20157539783e-23)
(0 0 0 -0.788915588418 -4.20653625458e-23 3.47429765578e-24 -0.0179935339832 -4.32444134812e-24 2.32081768083e-23)
(0 0 0 -0.858497932311 -3.91366724291e-23 3.01371396201e-24 -0.017164802633 -3.58223562012e-24 2.42221284516e-23)
(0 0 0 -0.9365509442 -3.59745153011e-23 2.41832101772e-24 -0.0163463555353 -2.93058573309e-24 2.50346590897e-23)
(0 0 0 -1.02457858806 -3.26567783526e-23 1.67239265443e-24 -0.0155348950969 -2.36139767406e-24 2.56226535027e-23)
(0 0 0 -1.12438493884 -2.92585357318e-23 7.51305343342e-25 -0.0147259697213 -1.87247426798e-24 2.59607366842e-23)
(0 0 0 -1.23809471058 -2.58288985407e-23 -3.71819320129e-25 -0.013913816251 -1.45738475726e-24 2.60229871547e-23)
(0 0 0 -1.36811072316 -2.24191047231e-23 -1.72995589406e-24 -0.0130910632178 -1.10976547118e-24 2.57804389605e-23)
(0 0 -2.07689171169e-38 -1.51690604493 -1.9087660697e-23 -3.36289884275e-24 -0.0122482213143 -8.23946529279e-25 2.52018312954e-23)
(0 0 0 -1.68641617636 -1.58906804556e-23 -5.31375420024e-24 -0.0113728513934 -5.93946846401e-25 2.42520037907e-23)
(0 0 0 -1.87651654655 -1.2876106892e-23 -7.61854209101e-24 -0.0104482869278 -4.13334049777e-25 2.28939045104e-23)
(0 0 0 -2.08157268349 -1.00913436755e-23 -1.0278819441e-23 -0.00945195693426 -2.7553945039e-25 2.10927052728e-23)
(0 0 0 -2.28364580805 -7.589067092e-24 -1.31994986891e-23 -0.00835434919288 -1.74429590774e-25 1.88257906258e-23)
(9.92440192534e-16 8.20927286383e-40 1.31348365821e-38 -2.44282117576 -5.41580095327e-24 -1.60748552802e-23 -0.00712331540541 -1.03132195357e-25 1.61078948913e-23)
(0 0 0 -2.49468018119 -3.61303371456e-24 -1.83014313469e-23 -0.00574624577602 -5.60042688153e-26 1.30332381506e-23)
(0 0 0 -2.37686817562 -2.21202377768e-24 -1.912534912e-23 -0.00427905112061 -2.72891432339e-26 9.81454974792e-24)
(0 0 0 -2.07992066314 -1.21193422304e-24 -1.81221286397e-23 -0.00287279957588 -1.14557302576e-26 6.75597577515e-24)
(0 0 0 -1.66002995974 -5.71011638964e-25 -1.55002609638e-23 -0.00169618799023 -3.87681554538e-27 4.13598920147e-24)
(0 0 0 -1.18921200872 -2.14019664855e-25 -1.17948645276e-23 -0.000834019766627 -9.08232375355e-28 2.11778391223e-24)
(0 0 0 -0.710580923247 -5.37281327464e-26 -7.42227567157e-24 -0.000288755687072 -9.79108227927e-29 7.63761298136e-25)
(0 0 0 -0.2952343234 -6.06991479772e-27 -3.22135277431e-24 -3.12561623657e-05 -2.65839405078e-31 8.66591159151e-26)
(0 0 0 -0.0110009117059 7.91925395453e-24 -1.00809710729e-24 -0.0520747426328 -1.98448531697e-25 3.20926516146e-23)
(0 0 0 -0.0322999577766 1.80859395042e-23 -2.85815090477e-24 -0.0520878474469 -1.69778637276e-24 3.05389168493e-23)
(0 0 0 -0.0521231611872 2.78553500427e-23 -4.34634341002e-24 -0.0521219417872 -4.36630576337e-24 2.78469543953e-23)
(0 0 0 -0.0704314265411 3.50140958966e-23 -5.42318811807e-24 -0.052183996943 -7.8374752315e-24 2.43935624213e-23)
(0 0 0 -0.0873562519385 3.93811131117e-23 -6.06519566567e-24 -0.0522724701548 -1.17713452185e-23 2.05312429229e-23)
(0 0 0 -0.10313282536 4.10262895665e-23 -6.30705661857e-24 -0.0523755691164 -1.58375702117e-23 1.65736699314e-23)
(6.13152648219e-15 0 1.01437596628e-38 -0.118040767469 4.02050114421e-23 -6.19374573457e-24 -0.0524734573882 -1.97806189941e-23 1.2776821891e-23)
(0 0 0 -0.132365621521 3.72917211925e-23 -5.77058531955e-24 -0.0525418000722 -2.34187202263e-23 9.31330581818e-24)
(0 0 0 -0.14637906495 3.26736463694e-23 -5.09689415887e-24 -0.0525550913681 -2.65955338655e-23 6.31891436644e-24)
(0 0 0 -0.16033134457 2.67579376239e-23 -4.22415735909e-24 -0.0524892178605 -2.92010373009e-23 3.8723183631e-24)
(0 0 0 -0.174450280537 1.9933669483e-23 -3.19806304582e-24 -0.052323233155 -3.11935878403e-23 2.01853529544e-24)
(0 0 0 -0.188943260212 1.2540090763e-23 -2.0570613173e-24 -0.0520404826391 -3.25796249559e-23 7.71142838148e-25)
(0 0 0 -0.204000336289 4.92091825224e-24 -8.41856107359e-25 -0.0516292228187 -3.33371770759e-23 1.18354025981e-25)
(0 0 0 -0.219797591042 -2.63760316626e-24 4.15126760186e-25 -0.051082844492 -3.35405654118e-23 3.16450742371e-26)
(0 0 0 -0.236500485688 -9.93422056541e-24 1.6848154476e-24 -0.0503997756115 -3.32382696621e-23 4.69766922579e-25)
(0 0 0 -0.254267178811 -1.67947378872e-23 2.94074171145e-24 -0.0495831232334 -3.24771261334e-23 1.38347539326e-24)
(0 0 0 -0.273251906702 -2.30751112374e-23 4.16101800169e-24 -0.0486401072945 -3.13377999309e-23 2.71779353736e-24)
(0 0 0 -0.29360855134 -2.86774600434e-23 5.32579452562e-24 -0.0475813412107 -2.98899561264e-23 4.41659339913e-24)
(0 0 0 -0.315494522605 -3.35302014132e-23 6.41928961291e-24 -0.0464200160976 -2.81987877528e-23 6.42003570273e-24)
(0 0 0 -0.339075073926 -3.76418589799e-23 7.4266351258e-24 -0.0451710464377 -2.63299328207e-23 8.67222737092e-24)
(5.91906212676e-15 0 9.79226687151e-39 -0.36452816642 -4.09962831328e-23 8.33513760854e-24 -0.0438502317332 -2.43436542479e-23 1.11145629455e-23)
(0 0 0 -0.392050004135 -4.34868803675e-23 9.13150350836e-24 -0.0424734807607 -2.22956162865e-23 1.37011418082e-23)
(-6.50233326831e-15 -1.72115328509e-37 0 -0.421861387113 -4.5217943599e-23 9.8021371396e-24 -0.0410561344866 -2.02364702552e-23 1.63769885386e-23)
(0 0 0 -0.454215068619 -4.63198351754e-23 1.0338549854e-23 -0.0396124105172 -1.81948304299e-23 1.90888281623e-23)
(0 0 0 -0.489404365229 -4.67095378253e-23 1.072468022e-23 -0.0381549790578 -1.62128489289e-23 2.17986226399e-23)
(-3.74337830515e-15 -9.9086398703e-38 -2.47715996757e-38 -0.527773350077 -4.64604879712e-23 1.09472260499e-23 -0.0366946680732 -1.43148108136e-23 2.44607297467e-23)
(3.92348396765e-15 1.03853755894e-37 2.59634389736e-38 -0.569729060568 -4.57205093148e-23 1.09924978962e-23 -0.0352402863022 -1.25171262699e-23 2.70297578402e-23)
(0 0 0 -0.615756275421 -4.4434039592e-23 1.0840012126e-23 -0.0337985453543 -1.08400972049e-23 2.94705181092e-23)
(-4.31010855851e-15 -5.70438118015e-38 -2.85219059008e-38 -0.666435547585 -4.26744553347e-23 1.0462988917e-23 -0.032374057915 -9.30112213018e-24 3.17477213893e-23)
(-4.51748138955e-15 -5.97883683681e-38 -2.98941841841e-38 -0.72246530259 -4.05741557842e-23 9.84080223236e-24 -0.0309693874232 -7.89946757203e-24 3.38196773155e-23)
(-4.73483157763e-15 -6.26649741555e-38 -6.26649741555e-38 -0.784688867201 -3.81633933008e-23 8.95292000072e-24 -0.0295851230418 -6.62847599189e-24 3.56544891851e-23)
(0 0 0 -0.854127147484 -3.55112558056e-23 7.76273754442e-24 -0.0282199544447 -5.49280181999e-24 3.72134237376e-23)
(0 0 0 -0.932017018995 -3.26528876506e-23 6.23124300222e-24 -0.0268707190865 -4.48955196888e-24 3.8464438782e-23)
(0 0 0 -1.01985361662 -2.96504720651e-23 4.3077613297e-24 -0.0255323919045 -3.61592188835e-24 3.93694235009e-23)
(2.85697995135e-15 1.89059074097e-38 3.78118148194e-38 -1.1194300258 -2.65702924784e-23 1.93341610353e-24 -0.0241979795407 -2.86478858563e-24 3.98907552582e-23)
(0 0 0 -1.23285673788 -2.34494006385e-23 -9.62123658837e-25 -0.0228582669439 -2.22693469712e-24 3.99880041865e-23)
(0 0 0 -1.36251737974 -2.03506484669e-23 -4.46557288108e-24 -0.0215013370461 -1.69369476531e-24 3.9615710712e-23)
(0 0 0 -1.51085806123 -1.73269716559e-23 -8.67937120801e-24 -0.0201117416369 -1.25601921724e-24 3.8725583671e-23)
(0 0 0 -1.67977524381 -1.44244910027e-23 -1.37159163843e-23 -0.0186691436973 -9.04997100199e-25 3.7262878256e-23)
(0 0 0 -1.86908763264 -1.16863171598e-23 -1.96630986717e-23 -0.0171462318172 -6.29163602737e-25 3.5171446854e-23)
(0 0 0 -2.07308400555 -9.15816676709e-24 -2.65231982625e-23 -0.0155059924539 -4.18799538839e-25 3.23972041422e-23)
(0 0 0 -2.2737511066 -6.88382985941e-24 -3.40467107903e-23 -0.0137000790245 -2.64462880697e-25 2.89066557434e-23)
(-1.04018960066e-15 -1.72084934209e-39 0 -2.43120873588 -4.90807864234e-24 -4.14428210004e-23 -0.0116760596429 -1.56052740795e-25 2.47242788797e-23)
(-1.09023638233e-15 -9.01822398562e-40 -2.8858316754e-38 -2.48141832124 -3.27454457402e-24 -4.71539882274e-23 -0.0094140796817 -8.46340727042e-26 1.99964630918e-23)
(0 0 0 -2.36284747695 -2.00501209004e-24 -4.9245274723e-23 -0.00700700817455 -4.11746030837e-26 1.50531573531e-23)
(0 0 0 -2.06673590803 -1.09815578811e-24 -4.66392030576e-23 -0.00470270906906 -1.72682884994e-26 1.03604504058e-23)
(0 0 0 -1.64914025729 -5.17631001772e-25 -3.98807447229e-23 -0.00277623244677 -5.84986777276e-27 6.34282437227e-24)
(0 0 0 -1.18134642301 -1.94082040471e-25 -3.03442063679e-23 -0.00136504345538 -1.37379369103e-27 3.24822163548e-24)
(0 0 0 -0.705893582904 -4.87453436083e-26 -1.90952237076e-23 -0.000472612451144 -1.48476871588e-28 1.17167305352e-24)
(-5.64585454383e-18 0 0 -0.293296566188 -5.5102833461e-27 -8.28820847523e-24 -5.11585513951e-05 -4.34214131088e-31 1.32976608695e-25)
(0 0 0 -0.011009302213 6.94021944458e-24 -1.82556884143e-24 -0.0703487999067 -2.4514339875e-25 4.03735034641e-23)
(0 0 0 -0.0323300981142 1.58442594551e-23 -5.15657194781e-24 -0.0703727811906 -2.10622199167e-24 3.84089472822e-23)
(0 0 0 -0.052185206761 2.43979398963e-23 -7.82291028039e-24 -0.0704302577193 -5.43278449494e-24 3.50133595665e-23)
(0 0 0 -0.0705313398753 3.06517681914e-23 -9.7556491867e-24 -0.0705301536294 -9.76160474206e-24 3.06485450267e-23)
(0 0 0 -0.0874890926235 3.44436033848e-23 -1.09133178242e-23 -0.0706709859832 -1.46589547745e-23 2.57785501792e-23)
(0 0 0 -0.103280803716 3.58508826873e-23 -1.13417493497e-23 -0.0708382694022 -1.97358688928e-23 2.07846268122e-23)
(0 0 0 -0.118174659932 3.50873565371e-23 -1.11292131419e-23 -0.0710069242668 -2.46585493945e-23 1.59958255824e-23)
(0 0 0 -0.132447655834 3.24800850607e-23 -1.03677227288e-23 -0.0711455357636 -2.91826025426e-23 1.16361445972e-23)
(0 0 0 -0.146366062699 2.8388477492e-23 -9.15254264836e-24 -0.0712204969601 -3.31322873841e-23 7.87248652307e-24)
(0 0 0 -0.160177612615 2.3179177441e-23 -7.57706777025e-24 -0.0711992949251 -3.63872963731e-23 4.80439471518e-24)
(0 0 0 -0.174110131866 1.71714429968e-23 -5.72435034181e-24 -0.071052862755 -3.88951503654e-23 2.48909773084e-24)
(0 0 0 -0.188373179655 1.06781713524e-23 -3.6714022377e-24 -0.0707571469347 -4.06396285427e-23 9.38180806258e-25)
(0 0 0 -0.203160819791 4.02836047645e-24 -1.48827882601e-24 -0.0702940595365 -4.16251438418e-23 1.36756574616e-25)
(0 0 0 -0.218654659658 -2.54599661761e-24 7.65865141985e-25 -0.0696519450331 -4.1906343925e-23 4.54571714454e-26)
(0 0 0 -0.235026850399 -8.88484766919e-24 3.0394696656e-24 -0.068825648313 -4.15450735292e-23 6.09185763345e-25)
(0 0 0 -0.25244302197 -1.48393917597e-23 5.2862723319e-24 -0.0678162466487 -4.06240623619e-23 1.76678560615e-24)
(0 0 0 -0.271065251688 -2.02820629793e-23 7.46888219544e-24 -0.0666304981476 -3.92220249866e-23 3.44708683208e-24)
(5.38811146939e-15 1.42622123064e-37 8.91388269151e-39 -0.291055211042 -2.51225994091e-23 9.55143584077e-24 -0.0652800617141 -3.74330788174e-23 5.5793786252e-24)
(0 0 0 -0.312577643142 -2.93134295482e-23 1.15045748687e-23 -0.0637805485837 -3.5343840331e-23 8.0889967296e-24)
(0 0 0 -0.335804317084 -3.28309986601e-23 1.33007894822e-23 -0.0621504724733 -3.30355567707e-23 1.09079494966e-23)
(0 0 0 -0.360918597182 -3.56706723431e-23 1.49277016351e-23 -0.0604101657908 -3.05561703971e-23 1.39615784936e-23)
(0 0 0 -0.38812076494 -3.78445608313e-23 1.63616279664e-23 -0.058580727432 -2.79837950002e-23 1.71885312576e-23)
(0 0 0 -0.417634245407 -3.93623961982e-23 1.75566570573e-23 -0.0566830574737 -2.5428104083e-23 2.05207524462e-23)
(0 0 0 -0.449712920079 -4.02640208873e-23 1.85156523563e-23 -0.0547370213561 -2.28837971662e-23 2.39041312957e-23)
(0 0 0 -0.484649761377 -4.05828976385e-23 1.92184963776e-23 -0.0527607703666 -2.03911610841e-23 2.72799993323e-23)
(0 0 0 -0.522787099846 -4.03634068255e-23 1.96135692115e-23 -0.0507702285457 -1.80238090928e-23 3.05937291831e-23)
(0 0 0 -0.564528933242 -3.96708102271e-23 1.96853506563e-23 -0.048778741387 -1.5783613851e-23 3.38000102113e-23)
(0 0 0 -0.610355806381 -3.85598355956e-23 1.94177208074e-23 -0.0467968699977 -1.36736457629e-23 3.68438380683e-23)
(4.5174813898e-15 0 0 -0.660842924798 -3.70700289724e-23 1.87532031737e-23 -0.0448323044518 -1.17324351251e-23 3.968276078e-23)
(0 0 0 -0.716682285295 -3.52352527072e-23 1.76499760143e-23 -0.0428898653008 -9.96322348868e-24 4.2270905271e-23)
(0 0 0 -0.778709659893 -3.31326560708e-23 1.6062338133e-23 -0.0409715580903 -8.36429072913e-24 4.45654999481e-23)
(0 0 0 -0.84793711812 -3.08172805842e-23 1.39304309149e-23 -0.0390766440134 -6.93546469593e-24 4.65174786135e-23)
(0 0 0 -0.925591098882 -2.83249596802e-23 1.11868275805e-23 -0.0372016868635 -5.67066369657e-24 4.8085072997e-23)
(0 0 0 -1.01315414422 -2.57175195631e-23 7.73672518474e-24 -0.0353405320158 -4.56928244388e-24 4.92201471594e-23)
(0 0 0 -1.11240366887 -2.30419756799e-23 3.4805589607e-24 -0.0334841622596 -3.61927975896e-24 4.98752732461e-23)
(0 0 0 -1.22542991389 -2.03361710347e-23 -1.71676318392e-24 -0.0316203552234 -2.81375170833e-24 4.9998150996e-23)
(-3.28951357166e-15 0 0 -1.35458923806 -1.76471311021e-23 -8.00959976057e-24 -0.0297330312452 -2.14077176093e-24 4.95329407267e-23)
(0 0 0 -1.50228953342 -1.50258598344e-23 -1.55817473258e-23 -0.027801121022 -1.58855646184e-24 4.84164200518e-23)
(0 0 0 -1.67037203369 -1.25078550271e-23 -2.46291993982e-23 -0.0257967052786 -1.14463094482e-24 4.6581421107e-23)
(0 0 0 -1.85857538924 -1.01271362872e-23 -3.53102133709e-23 -0.0236821555706 -7.95576465908e-25 4.39571604867e-23)
(0 0 0 -2.0610804851 -7.93115760003e-24 -4.76258950945e-23 -0.0214064158229 -5.2962305055e-25 4.04757121516e-23)
(0 0 0 -2.25977057082 -5.95866461092e-24 -6.11149596084e-23 -0.0189028903186 -3.33989404392e-25 3.60971291839e-23)
(0 0 0 -2.41481799732 -4.24698690414e-24 -7.43547947635e-23 -0.0160998163445 -1.97307920645e-25 3.08548015207e-23)
(0 0 0 -2.46272439645 -2.83119749602e-24 -8.45423173283e-23 -0.0129714338677 -1.07232682796e-25 2.49378714273e-23)
(0 0 0 -2.3431127229 -1.73205673757e-24 -8.82238812929e-23 -0.00964819567017 -5.21245891644e-26 1.87625410096e-23)
(0 0 0 -2.04820006825 -9.485304387e-25 -8.35093664731e-23 -0.00647231588915 -2.1891037435e-26 1.29095450061e-23)
(3.28922310705e-16 3.40097698064e-41 1.74130021409e-38 -1.63384150753 -4.47042672663e-25 -7.13909339549e-23 -0.00382015726655 -7.41643472349e-27 7.90302830719e-24)
(0 0 0 -1.17029895659 -1.6756290333e-25 -5.43195959359e-23 -0.0018782587668 -1.73912414451e-27 4.04759650648e-24)
(0 0 0 -0.699310313047 -4.20601335974e-26 -3.41864833023e-23 -0.000650310151564 -1.870499679e-28 1.4602058544e-24)
(0 0 0 -0.290574983325 -4.75073402208e-27 -1.48405417504e-23 -7.03955198523e-05 -5.29019442391e-31 1.65745130918e-25)
(0 0 0 -0.011022124886 5.84189778062e-24 -2.75186214617e-24 -0.0872463656202 -2.73286586288e-25 4.54189472085e-23)
(0 0 0 -0.0323744901517 1.33385045383e-23 -7.76089552703e-24 -0.0872787976374 -2.3511315017e-24 4.32180342689e-23)
(0 0 0 -0.052273640375 2.05383676754e-23 -1.17613806745e-23 -0.0873553967736 -6.07024506645e-24 3.937425882e-23)
(0 0 0 -0.0706721556048 2.57863874731e-23 -1.46565123347e-23 -0.0874881813616 -1.09157542996e-23 3.44382012746e-23)
(0 0 0 -0.0876785142293 2.89359286788e-23 -1.63919379234e-23 -0.0876775807165 -1.63919384327e-23 2.8931887067e-23)
(0 0 0 -0.103500224492 3.00597675507e-23 -1.70330636339e-23 -0.0879087797868 -2.20634835104e-23 2.32919092184e-23)
(0 0 0 -0.118391784686 2.93533468906e-23 -1.67007178155e-23 -0.0881539526957 -2.75697586266e-23 1.78796396054e-23)
(0 0 0 -0.132619446527 2.70954207474e-23 -1.5543286217e-23 -0.0883768802131 -3.26271643002e-23 1.29655684366e-23)
(0 0 0 -0.146442113204 2.35933720331e-23 -1.37057135656e-23 -0.0885376562366 -3.70387792046e-23 8.73408476178e-24)
(0 0 0 -0.160103343281 1.91518507009e-23 -1.13281785703e-23 -0.0885965493898 -4.06779181287e-23 5.29970530378e-24)
(0 0 0 -0.173829643582 1.40582356837e-23 -8.53843866645e-24 -0.088516864281 -4.34815383158e-23 2.72038075555e-24)
(0 0 0 -0.187831778508 8.59542196663e-24 -5.45331190669e-24 -0.0882669401239 -4.5435191364e-23 1.00567704445e-24)
(0 0 0 -0.202307246942 3.01546324796e-24 -2.17804384332e-24 -0.0878214695875 -4.65684483612e-23 1.3498475354e-25)
(0 0 0 -0.217443032194 -2.48464527768e-24 1.19375229237e-24 -0.0871622803443 -4.6916751899e-23 6.17271095842e-26)
(0 0 0 -0.233418283192 -7.763686149e-24 4.58998785151e-24 -0.0862786743226 -4.65171158173e-23 7.22352351488e-25)
(0 0 0 -0.250406878214 -1.26965012106e-23 7.94266097894e-24 -0.0851673840327 -4.54988244737e-23 2.04154939143e-24)
(0 0 0 -0.268579965357 -1.71874380891e-23 1.11938418672e-23 -0.0838321907014 -4.39623472723e-23 3.94151564456e-24)
(0 0 0 -0.288108636475 -2.11852238436e-23 1.42929152297e-23 -0.0822832472508 -4.1987441179e-23 6.33610574314e-24)
(0 0 0 -0.309166912906 -2.46319257918e-23 1.72024448215e-23 -0.0805361567314 -3.96636069071e-23 9.14737396969e-24)
(0 0 0 -0.331935221246 -2.74913432815e-23 1.98772861526e-23 -0.0786108671794 -3.70930921347e-23 1.22924588913e-23)
(-6.5023332683e-15 -8.60576642543e-38 -4.30288321272e-38 -0.356604530824 -2.97747753168e-23 2.22878678958e-23 -0.0765304532436 -3.43523244531e-23 1.56998318994e-23)
(0 0 0 -0.38338131969 -3.1554854238e-23 2.44008183627e-23 -0.0743198593062 -3.1513139151e-23 1.92856217877e-23)
(3.57154030711e-15 9.45378847679e-38 4.7268942384e-38 -0.412493539108 -3.27811782255e-23 2.61844102637e-23 -0.0720046767264 -2.86444943798e-23 2.29894855862e-23)
(-3.74337830511e-15 -9.90863987021e-38 -4.9543199351e-38 -0.444197766997 -3.34484918196e-23 2.7617002659e-23 -0.0696100190805 -2.57888032165e-23 2.67473427427e-23)
(0 0 0 -0.478787780116 -3.36973905874e-23 2.8645009962e-23 -0.0671595453327 -2.30154237127e-23 3.04904120976e-23)
(4.11225507827e-15 5.44252427939e-38 5.44252427939e-38 -0.516604839207 -3.35308082744e-23 2.9250100174e-23 -0.0646746624072 -2.03435005105e-23 3.41649565122e-23)
(4.31010855843e-15 5.70438118006e-38 5.70438118006e-38 -0.558050072493 -3.2925704855e-23 2.93771778617e-23 -0.0621739201557 -1.78141177363e-23 3.77201919984e-23)
(0 0 5.97883683687e-38 -0.603599456304 -3.19501059614e-23 2.8973074064e-23 -0.0596725931088 -1.54518484035e-23 4.11021891527e-23)
(0 0 0 -0.653822020913 -3.06933432071e-23 2.79915433969e-23 -0.0571824292014 -1.32634558813e-23 4.42537332888e-23)
(0 0 0 -0.709402029863 -2.91757949731e-23 2.63643551552e-23 -0.0547115324598 -1.12619587254e-23 4.71287727391e-23)
(0 0 0 -0.77116592815 -2.74253346052e-23 2.4007516751e-23 -0.052264339573 -9.45596084461e-24 4.96739322521e-23)
(0 0 0 -0.84011469404 -2.54995251981e-23 2.08313912324e-23 -0.0498416431218 -7.84302284698e-24 5.1845269151e-23)
(0 0 0 -0.917461541492 -2.3436521514e-23 1.67367483081e-23 -0.0474406091031 -6.41561165791e-24 5.35866923151e-23)
(-2.99443821099e-15 0 0 -1.00467298385 -2.12767210483e-23 1.15825185385e-23 -0.0450547283983 -5.17138357884e-24 5.48490482099e-23)
(0 0 0 -1.10350647049 -1.90608730347e-23 5.21450586449e-24 -0.0426736277111 -4.09880794667e-24 5.55758916142e-23)
(0 0 0 -1.21602647595 -1.68218608975e-23 -2.56209887529e-24 -0.040282640129 -3.18739688849e-24 5.57090259201e-23)
(0 0 0 -1.34455474381 -1.45955684703e-23 -1.19852225941e-23 -0.0378619896073 -2.42587354376e-24 5.51851765579e-23)
(0 0 0 -1.49145078045 -1.2423966216e-23 -2.33285060735e-23 -0.035385369611 -1.80082011622e-24 5.3932522065e-23)
(0 0 0 -1.6584860892 -1.03348372471e-23 -3.68772156808e-23 -0.0328176006048 -1.29695191001e-24 5.18768526279e-23)
(0 0 0 -1.84529856397 -8.36305009541e-24 -5.28733165228e-23 -0.0301110296612 -9.013858746e-25 4.89369401929e-23)
(0 0 0 -2.04593401246 -6.54493748434e-24 -7.13051110622e-23 -0.0272008834582 -6.00029570156e-25 4.50386598883e-23)