/*--------------------------------*- C++ -*----------------------------------*\
| =========                 |                                                 |
| \\      /  F ield         | OpenFOAM: The Open Source CFD Toolbox           |
|  \\    /   O peration     | Version:  3.0.1                                 |
|   \\  /    A nd           | Web:      www.OpenFOAM.org                      |
|    \\/     M anipulation  |                                                 |
\*---------------------------------------------------------------------------*/
FoamFile
{
    version     2.0;
    format      ascii;
    class       volVectorField;
    location    "50000";
    object      grad(p);
}
// * * * * * * * * * * * * * * * * * * * * * * * * * * * * * * * * * * * * * //

dimensions      [0 1 -2 0 0 0 0];

internalField   nonuniform List<vector> 
2500
(
(0 -1.61967654311e-14 8.05751891603e-15)
(0 1.38253736088e-14 2.07938686398e-14)
(0 5.04745335501e-14 1.47547782545e-14)
(0 3.20190554512e-14 1.00854957111e-14)
(0 1.14569465284e-14 8.85035721811e-15)
(3.78385357766e-29 4.52323286853e-15 1.14411844188e-14)
(3.96590663247e-29 -3.48896214496e-15 7.61079755492e-15)
(0 -1.61325837744e-14 6.30264175564e-15)
(0 -2.3696593313e-14 4.9515392917e-15)
(0 -3.42933103841e-14 4.59898444346e-15)
(0 -2.92490668081e-14 7.23883421279e-15)
(0 -2.35602831663e-14 3.99034155942e-15)
(-2.6288237488e-29 -2.16881189788e-14 2.71486848438e-15)
(0 -1.48596213387e-14 3.00424840187e-15)
(0 -7.01542840752e-15 2.08637496723e-15)
(0 3.75231441055e-15 1.68362093193e-15)
(0 1.34031243149e-14 1.31841440652e-15)
(0 2.56724406478e-14 1.69005487711e-15)
(0 4.08024659173e-14 1.06490937286e-15)
(0 5.48410833249e-14 1.00419408744e-16)
(0 6.77329865751e-14 -1.25847150827e-15)
(0 7.89679424669e-14 -1.39750459796e-15)
(0 9.13136507617e-14 -1.41383036757e-15)
(0 1.06676534127e-13 -1.29041727102e-15)
(0 1.24828475444e-13 -7.50524262885e-16)
(0 1.43853031034e-13 -1.4323126951e-15)
(0 1.60397171065e-13 -2.05096165902e-15)
(0 1.74280507349e-13 -2.31229733469e-15)
(0 1.89156044041e-13 -1.9066490694e-15)
(0 2.04943255369e-13 -2.48259857964e-15)
(0 2.19535737779e-13 -3.45118843424e-15)
(0 2.33160229275e-13 -4.24952018804e-15)
(0 2.45354535541e-13 -4.98031653803e-15)
(0 2.55658329995e-13 -5.59239587327e-15)
(0 2.64215571871e-13 -6.36440635949e-15)
(0 2.70048891951e-13 -7.03623044077e-15)
(0 2.72977633995e-13 -7.77873215917e-15)
(0 2.7290802438e-13 -8.37171015106e-15)
(0 2.67757699615e-13 -9.15067075902e-15)
(0 2.56264077762e-13 -9.83477549538e-15)
(0 2.3746901506e-13 -1.03671129971e-14)
(0 2.10722930117e-13 -1.08299513778e-14)
(0 1.75799361111e-13 -1.12931154187e-14)
(0 1.35549332807e-13 -1.15257126307e-14)
(0 9.80651033027e-14 -1.17467757571e-14)
(0 7.16444336689e-14 -1.18698754649e-14)
(0 5.91325330448e-14 -1.19577092796e-14)
(0 5.79388680101e-14 -1.20361643165e-14)
(0 5.90850948536e-14 -1.21155564508e-14)
(0 2.92186593274e-14 -1.21969238447e-14)
(0 -3.46041570741e-15 4.1283054828e-14)
(0 2.02320733815e-14 5.58596150845e-14)
(0 3.90154846215e-14 3.6713827585e-14)
(0 2.54675236953e-14 2.58437411659e-14)
(0 1.31614049491e-14 2.07219448001e-14)
(0 2.80493926015e-15 2.29167600975e-14)
(0 -1.00680839634e-14 1.92887749489e-14)
(-4.35671160097e-29 -1.97441715715e-14 1.59069741503e-14)
(0 -2.60873868155e-14 1.25307011167e-14)
(2.39301346881e-29 -3.07772389821e-14 1.35237511081e-14)
(0 -3.04166819866e-14 1.57568912627e-14)
(-6.57205937189e-30 -3.08961677256e-14 1.24380001551e-14)
(-2.75530469848e-29 -2.33182859614e-14 1.0654920249e-14)
(0 -1.60418201487e-14 7.21923258688e-15)
(0 -9.48381179835e-15 6.73622414984e-15)
(0 2.23568996517e-15 8.15267792484e-15)
(0 1.34523273569e-14 7.41686451544e-15)
(0 2.50709755768e-14 8.04614439893e-15)
(0 3.71655545221e-14 7.51226526705e-15)
(0 4.92753844178e-14 5.37272337556e-15)
(0 6.40586409502e-14 6.83103629739e-16)
(0 7.85682835375e-14 1.50130532282e-15)
(0 9.161686277e-14 2.17456947698e-15)
(9.24037133872e-29 1.08614635817e-13 1.44815442509e-15)
(0 1.2431363022e-13 -1.17906204794e-16)
(0 1.39744243446e-13 -1.10041191495e-15)
(0 1.57507551406e-13 -4.38760998559e-15)
(0 1.74836417511e-13 -5.47404973151e-15)
(-2.33754637875e-28 1.8845181833e-13 -5.96502280166e-15)
(-2.45001306113e-28 1.99012127206e-13 -8.08762592087e-15)
(0 2.1248241467e-13 -9.77125492052e-15)
(0 2.2675459866e-13 -1.19731533953e-14)
(0 2.39464607972e-13 -1.37954231302e-14)
(0 2.49265006043e-13 -1.57169549587e-14)
(0 2.57255683558e-13 -1.80118485098e-14)
(0 2.62883161062e-13 -1.99194140822e-14)
(0 2.65912780085e-13 -2.20376261314e-14)
(-7.13614558322e-28 2.65256757818e-13 -2.38841330192e-14)
(0 2.59245775157e-13 -2.60081855718e-14)
(0 2.48856931609e-13 -2.78404576722e-14)
(0 2.31109425459e-13 -2.94383394448e-14)
(0 2.04510433175e-13 -3.07558821181e-14)
(9.02619096936e-28 1.70945081763e-13 -3.18393162754e-14)
(0 1.32207858293e-13 -3.27556036938e-14)
(0 9.54243659898e-14 -3.336274355e-14)
(0 6.99433735021e-14 -3.37788150529e-14)
(0 5.77233135682e-14 -3.40748935358e-14)
(0 5.65347719393e-14 -3.43250020534e-14)
(0 5.75860670768e-14 -3.45730228685e-14)
(0 2.84423367024e-14 -3.48045549006e-14)
(0 -1.70467916248e-15 6.34354419182e-14)
(0 8.88111281207e-15 6.49821557065e-14)
(0 1.94096435228e-14 4.57873752831e-14)
(0 1.46987261328e-14 3.46995303155e-14)
(0 8.43578508734e-15 2.73678244513e-14)
(0 2.59322987709e-15 2.56864526572e-14)
(8.71342320208e-29 -1.24466877582e-14 1.97298935868e-14)
(0 -2.50518239084e-14 1.94018381369e-14)
(0 -2.6902466595e-14 1.76062189395e-14)
(0 -2.94998380483e-14 1.91788289503e-14)
(0 -3.11164503802e-14 1.84093382215e-14)
(0 -3.18157244058e-14 1.70722334557e-14)
(0 -3.03767011855e-14 1.6586342159e-14)
(0 -2.15238563043e-14 1.27795566675e-14)
(0 -5.36842386933e-15 1.2827229304e-14)
(0 4.87126817131e-15 1.33472825345e-14)
(0 1.32581539364e-14 1.47363934095e-14)
(0 2.57859035191e-14 1.49820684923e-14)
(0 3.47469897143e-14 1.42615108323e-14)
(0 3.89028104516e-14 1.26277385854e-14)
(2.10287329834e-29 5.86358214489e-14 1.057108344e-14)
(0 8.26709401579e-14 7.58318745109e-15)
(-9.24037133858e-29 9.11020708264e-14 5.7984437379e-15)
(0 1.00413350898e-13 4.43950993095e-15)
(0 1.17505946336e-13 1.96028540643e-15)
(-2.12786420954e-28 1.3061528326e-13 -4.11644818799e-16)
(2.23024242567e-28 1.46593581189e-13 -3.30589292896e-15)
(0 1.69122743079e-13 -6.72800628764e-15)
(-2.45001306127e-28 1.79908740193e-13 -1.10416378444e-14)
(-2.56789086822e-28 1.90846108678e-13 -1.38725601866e-14)
(-5.38288029205e-28 2.04333388367e-13 -1.70033540069e-14)
(0 2.16801456979e-13 -2.03021435301e-14)
(0 2.2937503315e-13 -2.33811601632e-14)
(0 2.36794335096e-13 -2.68563034127e-14)
(6.49602032206e-28 2.44578740638e-13 -2.99500614737e-14)
(0 2.50258438948e-13 -3.32648346283e-14)
(0 2.52621792786e-13 -3.61128655455e-14)
(-7.47948791302e-28 2.51462069039e-13 -3.92839884515e-14)
(0 2.45410789073e-13 -4.22135059161e-14)
(0 2.3596950847e-13 -4.48129303527e-14)
(0 2.19412547239e-13 -4.73860321273e-14)
(0 1.95104492951e-13 -4.95128491085e-14)
(-9.46046930638e-28 1.62186964194e-13 -5.12504340797e-14)
(0 1.24734768476e-13 -5.26608541951e-14)
(0 9.04359056531e-14 -5.36285792789e-14)
(0 6.60870607314e-14 -5.43083800345e-14)
(0 5.46545280608e-14 -5.48012243866e-14)
(0 5.3647818505e-14 -5.52009358979e-14)
(0 5.475456184e-14 -5.56033753162e-14)
(0 2.70753907374e-14 -5.59747888162e-14)
(0 -1.97184871432e-15 5.34934142905e-14)
(0 2.80533051539e-15 5.45633502227e-14)
(0 8.71398968604e-15 4.8580973878e-14)
(0 6.20088499325e-15 3.96238758222e-14)
(0 3.41296431751e-15 3.22175247187e-14)
(0 -5.91018995859e-15 2.63510818365e-14)
(0 -1.74315222497e-14 1.99478378713e-14)
(0 -2.26549100357e-14 2.19680829764e-14)
(0 -2.63111740088e-14 2.23796153657e-14)
(0 -2.97029774363e-14 2.28678357189e-14)
(0 -3.3465298912e-14 2.29573744643e-14)
(0 -3.36273432323e-14 2.31776279843e-14)
(0 -3.04742913176e-14 2.35506291324e-14)
(0 -2.23038503221e-14 2.50894781691e-14)
(0 -8.30095875064e-15 2.38773557577e-14)
(0 5.82951343231e-15 2.30762731696e-14)
(0 1.64765776698e-14 2.34704632164e-14)
(0 2.41200053064e-14 2.10122051996e-14)
(0 3.21312677377e-14 1.86228131294e-14)
(0 4.07621484993e-14 1.71849694763e-14)
(0 5.22761181811e-14 1.82373527773e-14)
(0 6.74365214584e-14 1.28547892694e-14)
(0 8.37565363805e-14 7.50571767226e-15)
(0 9.81088983298e-14 6.22755748722e-15)
(0 1.10680802366e-13 2.38054488575e-15)
(0 1.24126364896e-13 -1.0969869654e-15)
(0 1.37906679047e-13 -4.2895230368e-15)
(0 1.50038562053e-13 -8.2104281522e-15)
(0 1.64488506051e-13 -1.3754132574e-14)
(0 1.77896716125e-13 -1.68420329554e-14)
(0 1.88677183824e-13 -2.16877486435e-14)
(0 2.0197162427e-13 -2.58575518418e-14)
(0 2.12741501359e-13 -3.09617242343e-14)
(0 2.21183923184e-13 -3.54453288429e-14)
(0 2.28484264469e-13 -3.99267938457e-14)
(0 2.33964260185e-13 -4.46099545319e-14)
(-7.47948791208e-28 2.36203798036e-13 -4.87795376279e-14)
(0 2.33779377236e-13 -5.3125956111e-14)
(0 2.29325893586e-13 -5.68616866781e-14)
(0 2.19513304617e-13 -6.04262627287e-14)
(0 2.03248346119e-13 -6.37033418501e-14)
(0 1.80534257542e-13 -6.65313603617e-14)
(0 1.50442114513e-13 -6.90257577597e-14)
(0 1.15979871607e-13 -7.07338880527e-14)
(0 8.36580713404e-14 -7.2006269943e-14)
(0 6.11563385377e-14 -7.28538445313e-14)
(1.19661239552e-27 5.07047218306e-14 -7.34778591376e-14)
(0 4.99073260816e-14 -7.39932422448e-14)
(0 5.0895534532e-14 -7.45375065635e-14)
(0 2.51538192085e-14 -7.50441483241e-14)
(0 -7.87691927124e-16 5.24713707206e-14)
(0 4.08571215959e-15 4.76971158765e-14)
(0 4.92699160536e-15 5.39790161881e-14)
(0 -1.64364105651e-15 4.30977513809e-14)
(0 -5.34983204659e-15 3.54339220059e-14)
(0 -1.09800383334e-14 2.81619349033e-14)
(0 -1.73836402295e-14 2.68373915701e-14)
(0 -2.21190595406e-14 2.67196990196e-14)
(0 -2.57611612709e-14 2.67912573014e-14)
(0 -2.8772932472e-14 2.71287552928e-14)
(0 -3.07995293471e-14 2.77862081681e-14)
(0 -3.10496249772e-14 2.88141825516e-14)
(0 -2.74890345415e-14 2.55565665205e-14)
(0 -2.1149959349e-14 2.97734671945e-14)
(0 -8.78554676405e-15 3.40673579575e-14)
(0 4.26476749027e-15 3.0322524428e-14)
(0 9.57040407069e-15 2.86568262012e-14)
(0 1.65679541423e-14 2.51120127384e-14)
(0 2.71041168681e-14 2.32274932942e-14)
(0 3.83106102442e-14 1.86990547469e-14)
(-4.62018566928e-29 4.86105158514e-14 1.84737137897e-14)
(0 5.75431126268e-14 1.44666073856e-14)
(1.01509280828e-28 7.51804634789e-14 1.29631981835e-14)
(-1.06393210476e-28 8.73396179531e-14 8.00114171e-15)
(0 9.80168681654e-14 3.13573834283e-15)
(1.16877318938e-28 1.12011579486e-13 4.42732925546e-16)
(2.45001306123e-28 1.25663029996e-13 -5.26939199748e-15)
(2.56789086825e-28 1.3956794684e-13 -9.79875286457e-15)
(0 1.52080299404e-13 -1.47064163481e-14)
(0 1.63812138627e-13 -1.95169986634e-14)
(0 1.72342286827e-13 -2.54525970332e-14)
(0 1.8226459666e-13 -3.05506833832e-14)
(0 1.92068023931e-13 -3.66088213651e-14)
(0 2.00209354125e-13 -4.23577116212e-14)
(0 2.0538889504e-13 -4.81415532626e-14)
(0 2.10654055824e-13 -5.36090950518e-14)
(0 2.12618761436e-13 -5.92604009874e-14)
(0 2.1169666153e-13 -6.44198250572e-14)
(0 2.07748878554e-13 -6.92263060471e-14)
(0 1.98961263935e-13 -7.37302446496e-14)
(0 1.84789291888e-13 -7.76651247673e-14)
(0 1.63468960292e-13 -8.11902525328e-14)
(5.19635737784e-28 1.36095418889e-13 -8.41033048433e-14)
(0 1.05320384899e-13 -8.63337671181e-14)
(0 7.59691741607e-14 -8.79849134964e-14)
(0 5.55499134372e-14 -8.90086332675e-14)
(0 4.60946737125e-14 -8.97650492922e-14)
(0 4.52855391043e-14 -9.04285632766e-14)
(-6.88887003542e-28 4.60761874742e-14 -9.1102188366e-14)
(0 2.27889315783e-14 -9.17234165385e-14)
(-1.51354143106e-28 -5.87364233334e-15 5.36985737504e-14)
(-1.58636265298e-28 4.36385592199e-15 5.43517632347e-14)
(0 4.09085568423e-15 5.19508328583e-14)
(0 -1.13764347048e-14 4.40229708762e-14)
(0 -1.15732997162e-14 3.85034273287e-14)
(0 -1.48031773001e-14 3.41676919293e-14)
(0 -1.89468856216e-14 3.20326218843e-14)
(0 -2.26772103063e-14 3.10252672655e-14)
(0 -2.57962439673e-14 3.06006126076e-14)
(0 -2.84214113739e-14 3.06781691555e-14)
(0 -3.11485480071e-14 3.15615286871e-14)
(6.34489030708e-29 -3.66726597775e-14 3.27133893176e-14)
(3.32508143286e-29 -2.87224204487e-14 3.42390768248e-14)
(0 -9.55533262081e-15 3.6473802609e-14)
(-3.65273875442e-29 -7.76013609861e-15 3.9303511759e-14)
(-1.91424173212e-29 -3.02661771007e-15 3.92889866179e-14)
(0 7.13640808705e-15 3.35867886342e-14)
(0 1.40718679966e-14 3.06729156765e-14)
(0 1.96860360783e-14 2.69346224236e-14)
(4.6201856692e-29 3.14505681565e-14 2.36681243287e-14)
(0 4.31529769383e-14 1.95814272363e-14)
(5.07546404158e-29 5.51414199848e-14 1.82893721204e-14)
(0 6.84594300068e-14 1.49974850903e-14)
(0 7.41716138311e-14 1.06142270102e-14)
(0 9.13250207286e-14 6.65610065274e-15)
(-2.45001306126e-28 1.01353471508e-13 1.66432814267e-15)
(0 1.09285231548e-13 -3.57861322603e-15)
(0 1.22359260317e-13 -9.7472577106e-15)
(0 1.34596638831e-13 -1.65601605148e-14)
(-2.95665773165e-28 1.43174786211e-13 -2.35034520567e-14)
(0 1.51412152848e-13 -2.92342696707e-14)
(0 1.62222396532e-13 -3.58443907631e-14)
(0 1.68817319583e-13 -4.20315053476e-14)
(0 1.76194446467e-13 -4.87073927268e-14)
(0 1.82437841411e-13 -5.49769298598e-14)
(0 1.86250063571e-13 -6.12965770862e-14)
(0 1.87656782819e-13 -6.78014894985e-14)
(0 1.86894443357e-13 -7.36883752199e-14)
(0 1.83416321872e-13 -7.93250065474e-14)
(0 1.75932087473e-13 -8.45341458582e-14)
(0 1.62883605571e-13 -8.92839023658e-14)
(0 1.44039231296e-13 -9.35239245056e-14)
(0 1.19907022073e-13 -9.68554630285e-14)
(-5.70841236728e-28 9.18683399446e-14 -9.9532462459e-14)
(0 6.62778594412e-14 -1.01368130096e-13)
(0 4.89983758042e-14 -1.02672876811e-13)
(0 4.05239627871e-14 -1.03594738703e-13)
(0 3.98387151406e-14 -1.04401381232e-13)
(0 4.06816129978e-14 -1.05198954008e-13)
(0 2.0133803393e-14 -1.05942088768e-13)
(0 -5.04745628989e-16 7.04760976004e-14)
(0 2.6253810408e-15 5.99080498273e-14)
(-1.74268464042e-28 -3.98634272129e-15 4.30399214326e-14)
(0 -1.40002890483e-14 4.30074279089e-14)
(0 -1.47966533313e-14 4.04883114582e-14)
(0 -1.74273132828e-14 3.7804165629e-14)
(0 -2.06462919163e-14 3.57967300846e-14)
(0 -2.36670034052e-14 3.44505952228e-14)
(0 -2.61399740857e-14 3.35667861761e-14)
(0 -2.76014660292e-14 3.28844569255e-14)
(0 -2.82925821732e-14 3.42003671346e-14)
(0 -2.78281895149e-14 3.61399686696e-14)
(0 -2.24178898571e-14 4.12282877033e-14)
(0 -1.33915295116e-14 4.05548604893e-14)
(0 -4.63960460003e-15 3.69030392932e-14)
(-4.01268380277e-29 -5.21482267565e-15 3.77984140441e-14)
(0 -4.55011666973e-15 3.39099594637e-14)
(0 4.99720423698e-15 3.23108832561e-14)
(0 1.41763852468e-14 2.85805431614e-14)
(0 2.40884084397e-14 2.89064834961e-14)
(0 3.78552239757e-14 2.26955695143e-14)
(0 4.78363439938e-14 2.11044002397e-14)
(1.11512121282e-28 5.81460396253e-14 1.49782168883e-14)
(0 6.77689360298e-14 1.2831527232e-14)
(0 7.62972649185e-14 7.12475740634e-15)
(0 8.59125909214e-14 8.18640414932e-16)
(0 9.49430586492e-14 -4.762196305e-15)
(0 1.03073086814e-13 -1.13555580809e-14)
(2.95665773181e-28 1.11659174287e-13 -1.66554397325e-14)
(3.09891180174e-28 1.24700952346e-13 -2.48385139531e-14)
(0 1.32279913317e-13 -3.10350464524e-14)
(0 1.38950330706e-13 -3.79456415825e-14)
(0 1.4626379752e-13 -4.51953421531e-14)
(0 1.51994011992e-13 -5.25289236507e-14)
(0 1.56274568473e-13 -5.9870625139e-14)
(0 1.58206256231e-13 -6.70235268719e-14)
(4.30592398566e-28 1.5956970337e-13 -7.40198412624e-14)
(0 1.599359945e-13 -8.06533241118e-14)
(0 1.56715501905e-13 -8.73044247521e-14)
(0 1.49871789644e-13 -9.31861372487e-14)
(0 1.38350699282e-13 -9.86084152774e-14)
(0 1.22530119169e-13 -1.0309632599e-13)
(0 1.0203468877e-13 -1.07087515073e-13)
(0 7.85238767397e-14 -1.10089603648e-13)
(-6.27092584172e-28 5.6421681563e-14 -1.12198803007e-13)
(0 4.10544006233e-14 -1.13693811961e-13)
(0 3.42607707641e-14 -1.14790653363e-13)
(0 3.3756686638e-14 -1.15722962453e-13)
(0 3.44829803821e-14 -1.16668480764e-13)
(0 1.70614944647e-14 -1.17543975921e-13)
(-3.3253750642e-28 -1.35987910064e-14 6.10269342356e-14)
(1.74268464039e-28 -1.70235684557e-14 5.23693171795e-14)
(0 -9.64286498215e-15 4.27739650681e-14)
(0 -1.37116883014e-14 4.37830799421e-14)
(0 -1.63525205756e-14 4.25154032226e-14)
(0 -1.92822952422e-14 4.06815428596e-14)
(0 -2.22863160918e-14 3.87496007339e-14)
(0 -2.49951130187e-14 3.72086609239e-14)
(0 -2.74879213587e-14 3.61221562348e-14)
(0 -2.76182059669e-14 3.56095333004e-14)
(0 -2.7161616437e-14 3.55693661034e-14)
(0 -2.74899748502e-14 3.57706452409e-14)
(0 -2.28897972118e-14 3.54294058562e-14)
(0 -1.56983906213e-14 3.52850989779e-14)
(0 -1.13871010296e-14 3.42023116886e-14)
(0 -7.75849549754e-15 3.1652456945e-14)
(0 -1.89375921513e-15 3.21684225948e-14)
(0 4.84184672924e-15 3.23339545686e-14)
(0 1.37508046463e-14 3.17255350691e-14)
(0 2.02445171952e-14 2.96264994773e-14)
(0 2.83967810798e-14 2.80165493478e-14)
(1.11512121285e-28 3.93371358362e-14 2.27481227778e-14)
(0 5.10360941912e-14 1.80610705172e-14)
(-1.22500653058e-28 5.66385493751e-14 1.32592135776e-14)
(0 6.32561008065e-14 8.38744549722e-15)
(0 7.23230169558e-14 2.36318682431e-15)
(0 7.81221359135e-14 -3.78793895046e-15)
(0 9.037994205e-14 -1.09390598983e-14)
(-3.09891180186e-28 9.63168232776e-14 -1.72518614109e-14)
(3.24801016094e-28 1.01056340068e-13 -2.39524634041e-14)
(0 1.10926647339e-13 -3.24891326205e-14)
(0 1.16337758124e-13 -3.98244393788e-14)
(0 1.19426944697e-13 -4.83168392298e-14)
(0 1.24088451891e-13 -5.59325795235e-14)
(0 1.2846310049e-13 -6.4417707508e-14)
(0 1.30965434267e-13 -7.20216955604e-14)
(0 1.31869729877e-13 -7.98483761809e-14)
(-4.73023465303e-28 1.29947293063e-13 -8.70032508763e-14)
(4.95782106726e-28 1.27186059101e-13 -9.42274875459e-14)
(0 1.2271199798e-13 -1.00740116236e-13)
(0 1.1401414957e-13 -1.06590652127e-13)
(-5.70841236787e-28 1.00201634622e-13 -1.11790722603e-13)
(0 8.21169738136e-14 -1.15972893465e-13)
(0 6.29573424194e-14 -1.19296053042e-13)
(0 4.49086842565e-14 -1.21630025257e-13)
(0 3.28621770129e-14 -1.23212593918e-13)
(0 2.72727667161e-14 -1.2439863214e-13)
(-3.78385357761e-28 2.69593088729e-14 -1.25439943533e-13)
(0 2.76038639449e-14 -1.26488183679e-13)
(0 1.36919573031e-14 -1.27468075231e-13)
(0 -7.33658450227e-15 3.72288478147e-14)
(0 -1.17452468864e-14 4.75286962225e-14)
(0 -1.0686081404e-14 4.62105269881e-14)
(0 -1.42396815405e-14 4.60823922282e-14)
(0 -1.75112544111e-14 4.48350856316e-14)
(0 -2.08638373262e-14 4.34781050625e-14)
(0 -2.39504235438e-14 4.12079487148e-14)
(0 -2.62846780355e-14 3.93856334654e-14)
(0 -2.78256424827e-14 3.79484406323e-14)
(0 -2.81836466169e-14 3.76273157879e-14)
(0 -2.80530391754e-14 3.65378036356e-14)
(0 -2.79927172371e-14 3.61711434356e-14)
(0 -2.30338850254e-14 3.51462407797e-14)
(0 -1.51154155958e-14 3.21620554876e-14)
(0 -9.9278203031e-15 3.37534736941e-14)
(0 -8.12317465396e-15 3.85994918787e-14)
(0 -3.42408107854e-15 3.36725172894e-14)
(0 4.26935836207e-15 3.40181888217e-14)
(0 9.66373191465e-15 3.14766797238e-14)
(0 1.75627199693e-14 2.87910520234e-14)
(0 2.48867238316e-14 2.88508885308e-14)
(0 2.86921003666e-14 2.36143920777e-14)
(1.22500653058e-28 3.90533918191e-14 2.15754508117e-14)
(0 4.72082321037e-14 1.50192743661e-14)
(0 5.19739298168e-14 9.2580551063e-15)
(0 5.75650355262e-14 4.31264449949e-15)
(0 6.23756585275e-14 -1.25678211014e-15)
(0 6.8869079011e-14 -7.74490001658e-15)
(1.62400508058e-28 7.68212961803e-14 -1.61328362503e-14)
(0 8.16367416026e-14 -2.28278292817e-14)
(1.78403639569e-28 8.56790342559e-14 -3.14125446922e-14)
(0 9.00630881628e-14 -4.01542180725e-14)
(0 9.41445338182e-14 -4.87841018479e-14)
(0 9.72654636771e-14 -5.71880092018e-14)
(0 9.91625415107e-14 -6.58712969397e-14)
(0 1.00737659985e-13 -7.46826164826e-14)
(0 1.01169798058e-13 -8.32763845368e-14)
(-4.95782106753e-28 1.01023076201e-13 -9.13676192021e-14)
(0 9.78255571478e-14 -9.89059446582e-14)
(0 9.43550163643e-14 -1.05870352418e-13)
(0 8.63976624027e-14 -1.12237691483e-13)
(0 7.63204137144e-14 -1.18009794338e-13)
(-6.27092584163e-28 6.3241065036e-14 -1.22448483416e-13)
(0 4.79267038736e-14 -1.260053894e-13)
(0 3.42182016067e-14 -1.28449851685e-13)
(0 2.46006516431e-14 -1.30134193967e-13)
(0 2.03581336387e-14 -1.31402775519e-13)
(0 2.00685647769e-14 -1.32527160258e-13)
(0 2.05714632541e-14 -1.33664673968e-13)
(0 1.01784034447e-14 -1.34745207774e-13)
(0 -6.23894838689e-15 4.82994451209e-14)
(-3.82882155009e-28 -1.0657558118e-14 5.35819014536e-14)
(0 -1.07360744355e-14 4.98474443907e-14)
(0 -1.48187051523e-14 4.85821452667e-14)
(0 -1.85162898268e-14 4.70657234289e-14)
(0 -2.24510039279e-14 4.58201568784e-14)
(0 -2.5993213011e-14 4.31711068249e-14)
(0 -2.80843793184e-14 4.10710893161e-14)
(0 -2.91957683111e-14 3.8540106996e-14)
(0 -2.91072190916e-14 3.72315734868e-14)
(0 -2.87472600846e-14 3.65464848199e-14)
(0 -2.90959125176e-14 3.68285712084e-14)
(0 -2.76777725457e-14 3.79423402268e-14)
(8.41149319343e-29 -1.72600086585e-14 3.65415539452e-14)
(8.81619649422e-29 -2.88277843708e-15 3.56819459858e-14)
(-9.24037133911e-29 -8.19682352813e-15 3.65416690683e-14)
(0 -8.3065986944e-15 3.52033068292e-14)
(0 1.43957998251e-15 3.40058780095e-14)
(1.06393210479e-28 5.38715947455e-15 3.26723885041e-14)
(1.11512121282e-28 1.59251215034e-14 3.15528209753e-14)
(0 1.91327912468e-14 2.8755608995e-14)
(1.22500653067e-28 2.58894099246e-14 2.57167167925e-14)
(0 3.40721664977e-14 2.2734625893e-14)
(0 3.18893165272e-14 1.75044101192e-14)
(1.41046688343e-28 4.05908814518e-14 1.29630014482e-14)
(0 4.87757700675e-14 6.68841249857e-15)
(0 4.99014835439e-14 1.4829272447e-15)
(0 5.37917084293e-14 -5.46110535169e-15)
(0 5.78019492501e-14 -1.27737679765e-14)
(-1.78403639576e-28 5.99985572106e-14 -2.20645676192e-14)
(0 6.21579241731e-14 -3.02164198651e-14)
(0 6.5119354663e-14 -3.96961723148e-14)
(0 6.68752985803e-14 -4.88109810063e-14)
(0 6.8787024596e-14 -5.88276021324e-14)
(0 6.91075355918e-14 -6.77746306556e-14)
(0 6.91155145347e-14 -7.71894744709e-14)
(0 6.97360617635e-14 -8.46205358303e-14)
(0 6.90069203554e-14 -9.34803702923e-14)
(2.7231852086e-28 6.78678362243e-14 -1.01154222121e-13)
(0 6.55634253337e-14 -1.08683823336e-13)
(0 5.9452811152e-14 -1.15463558197e-13)
(0 5.2212136663e-14 -1.21225755825e-13)
(0 4.27454485521e-14 -1.26142488351e-13)
(0 3.2029127786e-14 -1.29769607113e-13)
(3.61015758191e-28 2.26131646579e-14 -1.32467453955e-13)
(0 1.61211289666e-14 -1.34245361932e-13)
(0 1.30318876512e-14 -1.35627106316e-13)
(0 1.28274969934e-14 -1.36840644663e-13)
(0 1.30920709037e-14 -1.38107116581e-13)
(0 6.45178375708e-15 -1.39289941213e-13)
(0 -3.82551004539e-15 5.44449430687e-14)
(0 -1.07988896867e-14 6.16309563931e-14)
(0 -1.41632545909e-14 5.21082084905e-14)
(0 -1.63207341941e-14 5.06481986513e-14)
(0 -1.96859955791e-14 4.89131212786e-14)
(0 -2.41165619318e-14 4.88910142828e-14)
(0 -2.80632020944e-14 4.46078905973e-14)
(0 -3.04951301515e-14 4.15263451969e-14)
(0 -3.14409519524e-14 3.80188513127e-14)
(0 -3.01595973401e-14 3.6224907413e-14)
(0 -2.84743372737e-14 3.54703917229e-14)
(0 -2.65241793528e-14 3.64500624428e-14)
(0 -2.36363982605e-14 3.91408640471e-14)
(0 -1.7864089558e-14 4.0250327581e-14)
(0 -9.55436434542e-15 3.72424209495e-14)
(-1.93699091294e-28 -8.81341227617e-15 2.85765619392e-14)
(0 -7.08631470532e-15 3.40511446605e-14)
(0 5.33611372757e-16 3.28334021501e-14)
(0 5.81646449146e-15 3.31612498091e-14)
(0 1.13034748233e-14 3.27006744304e-14)
(0 1.50517337836e-14 2.95524543116e-14)
(0 1.82266732201e-14 2.8035929109e-14)
(2.69144014608e-28 2.39492511934e-14 2.29692418848e-14)
(0 2.81025137644e-14 1.8925016459e-14)
(0 2.99861157552e-14 1.52693001114e-14)
(0 3.34237966689e-14 8.77366759002e-15)
(0 3.53258988595e-14 2.86928049672e-15)
(0 3.57022479382e-14 -4.04301184727e-15)
(0 3.62214445787e-14 -1.15176301474e-14)
(0 3.70897685555e-14 -2.0690069435e-14)
(0 3.83029603831e-14 -2.86956547643e-14)
(0 3.78580321542e-14 -3.81475540107e-14)
(0 3.77445184547e-14 -4.73161862325e-14)
(0 3.88027023936e-14 -5.69366038528e-14)
(0 3.96667518952e-14 -6.64531362641e-14)
(4.95782106764e-28 4.35906641445e-14 -7.57380530257e-14)
(-2.5981786885e-28 4.30017813957e-14 -8.459285033e-14)
(0 3.9438561152e-14 -9.34224004968e-14)
(0 3.84276606546e-14 -1.0150064203e-13)
(0 3.58532139956e-14 -1.09500350687e-13)
(0 3.26673600259e-14 -1.16544172783e-13)
(0 2.8365171107e-14 -1.22651891824e-13)
(0 2.30812530563e-14 -1.27594794497e-13)
(0 1.67635671837e-14 -1.31415579921e-13)
(3.78385357785e-28 1.11448627813e-14 -1.34118560945e-13)
(0 7.50173204446e-15 -1.36040039237e-13)
(0 5.61591338948e-15 -1.37480822005e-13)
(-2.17835580051e-28 5.27853492946e-15 -1.38771945956e-13)
(0 5.2820570727e-15 -1.40125832186e-13)
(0 2.61402796686e-15 -1.4139445462e-13)
(0 -1.6365057075e-15 5.73244226264e-14)
(-4.20611799801e-28 -1.24110150252e-14 5.12793711909e-14)
(0 -1.81345356685e-14 4.95233897805e-14)
(0 -1.71388794764e-14 4.76885938807e-14)
(0 -1.98353705112e-14 4.96599914e-14)
(-2.53795612283e-28 -2.59303922406e-14 5.42420810471e-14)
(0 -3.20279912927e-14 4.51871315399e-14)
(0 -3.37948423441e-14 4.2118640868e-14)
(0 -3.39781545917e-14 3.61494747112e-14)
(0 -3.15084318839e-14 3.27232932064e-14)
(0 -2.84749409799e-14 3.2666289564e-14)
(0 -2.51779231089e-14 3.39619946714e-14)
(0 -2.34531993439e-14 3.29607319699e-14)
(0 -1.9532237224e-14 3.1881748615e-14)
(-1.9369909129e-28 -1.71102191458e-14 2.74545780487e-14)
(0 -1.17584681044e-14 2.58295098682e-14)
(0 -2.94040271027e-15 2.61375720555e-14)
(0 2.39159683765e-16 2.86348913135e-14)
(0 5.19165111023e-15 2.93001605444e-14)
(0 1.02367090087e-14 2.77687869555e-14)
(0 1.17137264253e-14 2.68982265474e-14)
(0 1.46154415593e-14 2.54344855259e-14)
(0 1.80037217193e-14 2.32946463687e-14)
(0 1.78736306947e-14 1.92833428056e-14)
(0 2.08288864773e-14 1.55084273207e-14)
(0 2.35818854868e-14 9.78533109284e-15)
(0 2.26237090892e-14 3.70241469781e-15)
(0 2.16846375884e-14 -2.3496803928e-15)
(0 1.88239147485e-14 -8.46180332661e-15)
(1.9598373795e-28 1.80255342284e-14 -1.67303323929e-14)
(0 1.73202199151e-14 -2.43855282364e-14)
(0 1.50786964469e-14 -3.41126907097e-14)
(0 1.38910237593e-14 -4.30416025071e-14)
(-2.36511732641e-28 1.23145063981e-14 -5.27740298218e-14)
(0 1.10307017121e-14 -6.22163057743e-14)
(0 1.05971224302e-14 -7.18500350155e-14)
(0 9.88118517446e-15 -8.20535023015e-14)
(0 8.95887012943e-15 -9.13086621374e-14)
(0 7.96662831231e-15 -9.99291018397e-14)
(0 6.86013862488e-15 -1.07758962152e-13)
(-1.64315993445e-28 5.69285722086e-15 -1.1497987349e-13)
(1.72221750884e-28 4.89224903942e-15 -1.21209539627e-13)
(0 3.44061372554e-15 -1.26434741548e-13)
(0 1.39662921554e-15 -1.30421923198e-13)
(0 -1.52871537942e-16 -1.33195835274e-13)
(0 -1.23243315882e-15 -1.35174960416e-13)
(-2.17835580048e-28 -1.78012986096e-15 -1.36663672944e-13)
(0 -2.23155865928e-15 -1.3803697278e-13)
(0 -2.53546165514e-15 -1.39470921761e-13)
(0 -1.28997292495e-15 -1.40820188342e-13)
(-4.20611799807e-28 -7.33006581301e-15 4.50302323061e-14)
(0 -1.55755198e-14 3.66042780733e-14)
(0 -1.66451668456e-14 4.22014324476e-14)
(0 -1.62066601239e-14 4.22750100026e-14)
(0 -1.50415304631e-14 4.88634757635e-14)
(-2.66006514628e-28 -2.77324178068e-14 4.95900893321e-14)
(0 -3.75014229684e-14 4.2269404986e-14)
(0 -3.8018870248e-14 3.7093242103e-14)
(0 -3.94794050322e-14 3.26019000484e-14)
(0 -3.32490828645e-14 2.66848045417e-14)
(0 -2.72900289167e-14 2.86716271541e-14)
(-1.76323929882e-28 -2.62274164211e-14 2.79181427108e-14)
(0 -2.57601479288e-14 2.71183734683e-14)
(0 -2.39349907173e-14 2.70842299069e-14)
(2.03018561658e-28 -1.66357372972e-14 2.47705238972e-14)
(0 -1.04479325073e-14 2.45855440018e-14)
(2.23024242566e-28 -3.36548411802e-15 2.67334977868e-14)
(0 4.5607969804e-15 2.75892308625e-14)
(-1.22500653064e-28 4.54190100945e-15 2.83528738886e-14)
(0 7.8588294198e-15 2.69992906544e-14)
(0 1.13963842264e-14 2.58969960964e-14)
(0 1.24031804222e-14 2.50062907124e-14)
(0 1.35265982266e-14 2.2803122154e-14)
(0 1.42722217528e-14 1.9994200086e-14)
(-1.62400508046e-28 1.23889597419e-14 1.75654159221e-14)
(1.70214105491e-28 1.06853918625e-14 1.24117420974e-14)
(1.78403639579e-28 1.07515810473e-14 6.30508688172e-15)
(0 9.84830667638e-15 2.6801270785e-16)
(-1.95983737963e-28 4.07839566537e-15 -6.68007327113e-15)
(0 -2.51448509194e-18 -1.3452524473e-14)
(-2.15296199299e-28 -4.25072695721e-15 -2.20736701591e-14)
(0 -9.79586726348e-15 -3.11482512902e-14)
(0 -1.23135843346e-14 -4.05480278122e-14)
(0 -1.50718634206e-14 -5.01173516866e-14)
(0 -1.65883664709e-14 -5.9639298633e-14)
(0 -1.78319014221e-14 -6.92718127293e-14)
(-1.4271030918e-28 -1.99987054044e-14 -7.84861395299e-14)
(0 -2.11748452464e-14 -8.75325770902e-14)
(0 -2.00684462057e-14 -9.6235690416e-14)
(0 -2.02410670767e-14 -1.04233331567e-13)
(0 -1.9826446862e-14 -1.11450483776e-13)
(0 -1.84480316782e-14 -1.17868392476e-13)
(0 -1.63298207111e-14 -1.23083844278e-13)
(0 -1.35328230137e-14 -1.27083773919e-13)
(0 -1.11833215982e-14 -1.29917996e-13)
(1.08917790025e-28 -9.58730679864e-15 -1.31907208e-13)
(0 -9.19336077221e-15 -1.33470105395e-13)
(0 -9.9636276828e-15 -1.34916299973e-13)
(1.25407442348e-28 -1.05383920983e-14 -1.36422078245e-13)
(0 -5.24232941814e-15 -1.37852741385e-13)
(0 -6.69212094711e-15 3.52299676218e-14)
(0 -1.40126031512e-14 3.43980830507e-14)
(0 -1.4682244836e-14 3.24956055534e-14)
(0 -1.27338042924e-14 3.71225969795e-14)
(0 -1.48000911339e-14 4.00862541739e-14)
(0 -3.07827766386e-14 3.00698320231e-14)
(0 -4.14522800163e-14 3.81387330981e-14)
(0 -4.1444060578e-14 3.08476309864e-14)
(0 -4.26847197365e-14 3.013090824e-14)
(-1.68229863869e-28 -3.47659160295e-14 3.07493770507e-14)
(0 -2.73808656354e-14 2.68581485268e-14)
(0 -2.66750513317e-14 2.21553955347e-14)
(0 -2.43562984976e-14 2.49799918507e-14)
(0 -2.21935127446e-14 2.51482624095e-14)
(0 -1.97166719654e-14 2.73248349211e-14)
(2.23024242564e-28 -9.42837251158e-15 2.72416768226e-14)
(0 5.45920614396e-16 2.88544477551e-14)
(0 2.4361326287e-15 2.66058928035e-14)
(0 4.33326182883e-15 2.53621136577e-14)
(0 6.80145957922e-15 2.53523671045e-14)
(0 8.87034823121e-15 2.40924692701e-14)
(0 9.85375526341e-15 2.31290075697e-14)
(0 9.9413669625e-15 2.19132260995e-14)
(1.62400508049e-28 9.1417659872e-15 1.99321246562e-14)