/*--------------------------------*- C++ -*----------------------------------*\
| =========                 |                                                 |
| \\      /  F ield         | OpenFOAM: The Open Source CFD Toolbox           |
|  \\    /   O peration     | Version:  3.0.1                                 |
|   \\  /    A nd           | Web:      www.OpenFOAM.org                      |
|    \\/     M anipulation  |                                                 |
\*---------------------------------------------------------------------------*/
FoamFile
{
    version     2.0;
    format      ascii;
    class       volVectorField;
    location    "50000";
    object      grad(k);
}
// * * * * * * * * * * * * * * * * * * * * * * * * * * * * * * * * * * * * * //

dimensions      [0 1 -2 0 0 0 0];

internalField   nonuniform List<vector> 
2500
(
(0 0.000212427918942 0.00021241266707)
(0 0.000616879973862 0.000212079788377)
(0 0.000975009356253 0.000211477221755)
(0 0.00128043847198 0.000210620024849)
(0 0.00153461235501 0.000209433997337)
(2.08019550322e-17 0.00174375972749 0.000207756913241)
(2.18028022854e-17 0.00191619968812 0.000205368587213)
(2.28518034363e-17 0.00206053646764 0.000202029936516)
(0 0.00218466296439 0.000197518704262)
(0 0.00229530451805 0.00019165704099)
(0 0.00239786538432 0.0001843301081)
(0 0.00249642435504 0.000175496287307)
(2.89042227917e-17 0.00259379549206 0.000165189947613)
(0 0.00269161305435 0.000153517819648)
(0 0.00279042235028 0.000140650147608)
(0 0.00288976839484 0.000126807930856)
(0 0.00298827761493 0.00011224768768)
(0 0.00308372790125 9.72452097026e-05)
(0 0.00317310095239 8.20796873979e-05)
(0 0.0032526090271 6.70193898185e-05)
(0 0.00331768625864 5.23097834385e-05)
(0 0.0033629325474 3.81646307413e-05)
(0 0.00338199542908 2.47602642886e-05)
(0 0.00336737165024 1.22329214086e-05)
(0 0.0033101047455 6.78789475875e-07)
(0 0.00319934669921 -9.84374072639e-06)
(0 0.0030217394662 -1.93101871617e-05)
(0 0.00276055398418 -2.77250188395e-05)
(0 0.00239449804694 -3.51161344974e-05)
(0 0.00189606716861 -4.15291827551e-05)
(0 0.00122926160747 -4.70219984421e-05)
(0 0.000346427157946 -5.16592955724e-05)
(0 -0.000816095424918 -5.55075798586e-05)
(0 -0.0023438749837 -5.86300454926e-05)
(0 -0.00435213076404 -6.10809063934e-05)
(0 -0.00699509467981 -6.2898110217e-05)
(0 -0.0104751024322 -6.40924954915e-05)
(0 -0.0150447464724 -6.46298973262e-05)
(0 -0.0209831381818 -6.44002319211e-05)
(0 -0.0284992113838 -6.31650700096e-05)
(0 -0.0374647745804 -6.04791127416e-05)
(0 -0.046852445852 -5.561850006e-05)
(0 -0.0540078205439 -4.76907586641e-05)
(0 -0.0548777471804 -3.63527650729e-05)
(0 -0.0468935269846 -2.3191375232e-05)
(0 -0.0325193697499 -1.17276817904e-05)
(0 -0.0178347954159 -4.48112751077e-06)
(0 -0.0073223373488 -1.17863666049e-06)
(0 -0.00126890403817 -1.99067385914e-07)
(0 -0.00129068828945 -3.10796665555e-07)
(0 0.000212095040249 0.000616838718428)
(0 0.000615915537178 0.000615874195073)
(0 0.000973436132194 0.000614142633718)
(0 0.0012781312193 0.000611710790923)
(0 0.00153122287564 0.000608389954804)
(2.18028022853e-17 0.00173871494811 0.000603733201485)
(0 0.00190875271431 0.000597117250559)
(-2.39512753207e-17 0.00204984204358 0.000587852587603)
(0 0.00216985800311 0.000575286100333)
(2.63114613438e-17 0.00227558393166 0.000558881819817)
(0 0.00237254855709 0.000538276842125)
(2.89042227913e-17 0.00246500947996 0.000513313749297)
(3.02948955405e-17 0.00255599959329 0.000484051971083)
(0 0.0026473960132 0.000450760830191)
(0 0.0027399940616 0.000413897326725)
(0 0.00283357930103 0.000374072141428)
(0 0.00292699413858 0.000332007720269)
(0 0.00301819547953 0.000288492492084)
(0 0.00310429828204 0.000244335148054)
(0 0.00318159761971 0.000200322456982)
(0 0.00324555942266 0.000157183350859)
(0 0.00329076751368 0.000115561098353)
(0 0.00331081160098 7.59944101006e-05)
(5.07994786595e-17 0.00329809703548 3.89074184236e-05)
(0 0.00324355167129 4.60774070463e-06)
(0 0.00313619703076 -2.67086752669e-05)
(0 0.00296253885773 -5.49475029534e-05)
(0 0.00270571423685 -8.01024097532e-05)
(-6.42539855976e-17 0.00234430645124 -0.000102239354507)
(0 0.00185070182923 -0.000121480051923)
(0 0.00118881216863 -0.000137985494731)
(0 0.000310921236907 -0.00015194001278)
(0 -0.000846658209504 -0.000163535847421)
(0 -0.00236947666673 -0.000172957592621)
(0 -0.00437266634608 -0.000180364926909)
(0 -0.00701026106851 -0.000185870549593)
(0 -0.0104842061006 -0.00018950758871)
(0 -0.0150463570872 -0.000191176113997)
(0 -0.020974465376 -0.000190551086892)
(0 -0.028475056628 -0.000186926652946)
(0 -0.0374161426033 -0.000178983596626)
(0 -0.0467661668456 -0.000164578804995)
(1.55068780083e-17 -0.0538717868837 -0.000141077053786)
(0 -0.0546968713211 -0.000107486094278)
(0 -0.0467036165851 -6.85346609246e-05)
(0 -0.0323686892458 -3.46434988317e-05)
(0 -0.0177460648589 -1.32346657195e-05)
(0 -0.00728473783889 -3.48087851866e-06)
(0 -0.00126105304091 -5.88154745416e-07)
(0 -0.00128568102987 -9.19697467673e-07)
(0 0.000211492390935 0.000974952537057)
(0 0.000614183893131 0.000973378948376)
(0 0.000970656730423 0.000970599261786)
(0 0.00127413563717 0.000966802513631)
(0 0.00152544692313 0.000961783598158)
(0 0.00173018230406 0.000954919388654)
(2.39512753211e-17 0.00189615530018 0.000945282192572)
(0 0.00203166755293 0.000931804443548)
(0 0.00214453014083 0.000913437935374)
(0 0.00224159755217 0.000889283357467)
(0 0.00232859108612 0.000858684092575)
(0 0.00241006344572 0.000821285334133)
(0 0.00248942209675 0.000777061560303)
(0 0.00256897161158 0.000726315894087)
(0 0.00264995868684 0.000669655285579)
(0 0.002732614601 0.000607946079066)
(0 0.00281619377847 0.000542255195829)
(0 0.00289900714335 0.000473782660816)
(0 0.00297844698312 0.000403791319156)
(0 0.00305099718642 0.000333539236399)
(0 0.00311221952164 0.000264219463741)
(0 0.00315670326065 0.000196910673174)
(0 0.003177961818 0.00013254078564)
(0 0.00316825575526 7.18643130471e-05)
(0 0.00311831580117 1.5452883546e-05)
(0 0.00301693142468 -3.63025672901e-05)
(6.13044369945e-17 0.00285035862564 -8.31800956793e-05)
(0 0.00260148308605 -0.000125107989376)
(0 0.0022486493013 -0.000162141365835)
(-3.52928233559e-17 0.00176402994792 -0.000194436263393)
(-3.69908717002e-17 0.00111135974642 -0.000222222873263)
(0 0.000242793853753 -0.000245778915469)
(0 -0.000905419863934 -0.000265403355499)
(0 -0.00241880912232 -0.000281389590416)
(4.46403117399e-17 -0.00441235310991 -0.000293995679085)
(0 -0.00703972236567 -0.000303406655541)
(0 -0.010502135621 -0.000309679568967)
(-5.13986495636e-17 -0.0150500694221 -0.000312654246369)
(0 -0.0209587244479 -0.000311800808341)
(0 -0.0284301106318 -0.000305963023742)
(0 -0.0373251348587 -0.000292977146865)
(0 -0.0466044806737 -0.000269332496822)
(-1.62529625103e-17 -0.0536169573645 -0.000230734841416)
(0 -0.0543584643395 -0.000175633659439)
(0 -0.0463488362482 -0.000111871646973)
(0 -0.0320875485687 -5.65062256394e-05)
(0 -0.0175806390696 -2.15787493903e-05)
(0 -0.00721466367351 -5.67505377665e-06)
(0 -0.00124643803425 -9.59674145208e-07)
(-1.76432954495e-19 -0.00127632967972 -1.50513542552e-06)
(0 0.000210634941011 0.00128037736286)
(0 0.000611751525573 0.00127806928975)
(0 0.000966859710523 0.00127407270675)
(0 0.00126889066462 0.00126882724374)
(0 0.00151815672552 0.00126226898036)
(0 0.00171968642137 0.00125376168468)
(0 0.00188081336445 0.00124221758409)
(0 0.00200951193023 0.00122629782699)
(0 0.00211344236752 0.00120461688819)
(0 0.00219948426394 0.00117591616056)
(0 0.0022735475447 0.00113919633291)
(0 0.00234051762056 0.00109380829972)
(0 0.0024042535255 0.00103950540036)
(0 0.00246759970726 0.000976460469816)
(0 0.00253239606994 0.000905251551547)
(0 0.0025994827752 0.000826820764966)
(0 0.00266870092972 0.000742411685714)
(0 0.00273889067348 0.000653491444917)
(0 0.0028078861664 0.000561664328075)
(0 0.00287250364094 0.000468583762913)
(0 0.00292851466878 0.000375869134757)
(0 0.00297059243651 0.000285032879236)
(0 0.00299221417254 0.000197421878216)
(0 0.00298549768925 0.000114175529393)
(0 0.00294094371699 3.62011658192e-05)
(0 0.00284704734346 -3.5834007571e-05)
(0 0.0026897300718 -0.000101496468461)
(0 0.00245152686561 -0.000160568198189)
(0 0.00211043762187 -0.000213019846663)
(0 0.00163831691751 -0.000258978226553)
(0 0.000998626866302 -0.000298690659549)
(0 0.000143315018336 -0.000332487936665)
(0 -0.000991489417908 -0.000360746579007)
(0 -0.0024913080276 -0.000383849592943)
(0 -0.00447092729584 -0.000402142699702)
(0 -0.00708352406778 -0.000415879426562)
(-5.13986495571e-17 -0.0105293050983 -0.000425142265592)
(0 -0.0150568071425 -0.000429716468541)
(0 -0.0209376309977 -0.000428876531223)
(0 -0.0283674140659 -0.000421029427655)
(0 -0.0371970692501 -0.00040318902634)
(0 -0.0463764802832 -0.000370519361014)
(0 -0.0532578488284 -0.000317150071895)
(0 -0.0538825322094 -0.000241093521288)
(0 -0.0458510524355 -0.000153342625982)
(0 -0.031693864465 -7.73683097606e-05)
(1.28485277619e-18 -0.0173492736153 -2.95300732882e-05)
(0 -0.00711671216045 -7.7653847131e-06)
(0 -0.00122604588672 -1.31468282116e-06)
(0 -0.00126321566114 -2.07075313061e-06)
(0 0.000209448442354 0.00153455603458)
(0 0.000608429566482 0.00153116517899)
(0 0.000961839675281 0.00152538730158)
(0 0.0012623319333 0.00151809552774)
(0 0.00150963739836 0.0015095755832)
(0 0.00170810221778 0.00149938565186)
(0 0.0018644394314 0.00148646054476)
(0 0.00198615617716 0.00146933034592)
(0 0.00208063640895 0.00144635941284)
(0 0.0021546822038 0.00141595939642)
(0 0.0022143179781 0.00137676025637)
(0 0.00226472056533 0.00132773683612)
(0 0.00231019561453 0.00126829302379)
(0 0.00235416105908 0.00119830648695)
(0 0.00239912249591 0.0011181371713)
(0 0.00244663806813 0.00102860318383)
(0 0.00249727603065 0.00093092850786)
(0 0.0025505693619 0.000826668053785)
(0 0.00260497019607 0.000717616576346)
(0 0.00265780348426 0.000605708730799)
(-5.07994786586e-17 0.00270521478846 0.000492917786438)
(0 0.00274210184496 0.000381160147656)
(5.58053172987e-17 0.00276201374661 0.00027221184694)
(-5.84902860174e-17 0.00275699520923 0.000167641667466)
(0 0.00271734604307 6.87637183097e-05)
(6.4253985598e-17 0.00263125686793 -2.3389629425e-05)
(6.73454462255e-17 0.00248426995456 -0.000108075298576)
(3.52928233562e-17 0.002258497037 -0.000184829803517)
(0 0.00193150151785 -0.00025344545448)
(0 0.00147471775526 -0.000313935995999)
(0 0.000851232354541 -0.000366495032551)
(0 1.26912369889e-05 -0.0004114499106)
(0 -0.00110496967136 -0.000449212507616)
(0 -0.00258730795625 -0.000480226525185)
(0 -0.00454890777705 -0.000504908000587)
(0 -0.00714235844827 -0.00052357107202)
(0 -0.0105666178362 -0.000536323011033)
(0 -0.0150677947401 -0.000542898872897)
(0 -0.0209129615594 -0.00054238516139)
(0 -0.0282897389531 -0.000532762365644)
(0 -0.0370365203006 -0.000510238085325)
(0 -0.0460898540685 -0.000468685965668)
(1.78545479969e-17 -0.0528068029024 -0.000400742600607)
(0 -0.0532863403089 -0.000304130052732)
(0 -0.0452294277805 -0.000193079193608)
(0 -0.0312035149885 -9.72830488767e-05)
(0 -0.0170615597554 -3.71066716672e-05)
(-3.52865909022e-19 -0.006994994069 -9.75651093413e-06)
(-4.62304242321e-20 -0.00120076753651 -1.65424879124e-06)
(0 -0.0012468489363 -2.61985854644e-06)
(-2.08019550322e-17 0.000207770667375 0.00174371400849)
(-2.18028022853e-17 0.000603771072401 0.00173866728195)
(0 0.000954973427506 0.00173013173695)
(0 0.0012538230602 0.00171963308056)
(0 0.00149944687798 0.00170804699312)
(0 0.00169541774817 0.00169536187745)
(0 0.00184769652415 0.00168074498079)
(0 0.00196317294065 0.00166276396069)
(0 0.00204880128285 0.00163965123604)
(0 0.00211115989382 0.00160955193625)
(0 0.00215625649747 0.00157073258321)
(3.4881403348e-17 0.00218945037805 0.00152174517948)
(7.31193139745e-17 0.00221541414612 0.00146154769289)
(0 0.00223809568996 0.00138958335995)
(-4.01622873371e-17 0.00226066459564 0.00130582123808)
(0 0.00228544066741 0.00121076046816)
(0 0.00231380878184 0.00110540122083)
(0 0.00234612656589 0.000991186271091)
(0 0.0023816307305 0.000869918401974)
(0 0.00241834512192 0.000743660110657)
(0 0.00245298914358 0.000614623110773)
(2.79026586504e-17 0.00248087953226 0.000485055644704)
(0 0.00249581176338 0.000357135486761)
(0 0.00248989971105 0.000232875657898)
(0 0.00245334346081 0.000114048380138)
(-3.36727231132e-17 0.00237408478616 2.13084362652e-06)
(0 0.00223729672002 -0.000101725782742)
(0 0.00202463613786 -0.000196704695456)
(0 0.00171316395244 -0.000282311425865)
(-8.12719888825e-17 0.00127380350475 -0.000358344804599)
(4.25911194927e-17 0.000669161271178 -0.000424854716606)
(0 -0.000149525007675 -0.000482090128155)
(0 -0.00124660826461 -0.00053043975221)
(0 -0.00270775155768 -0.00057036564844)
(0 -0.00464735968697 -0.000602326585241)
(0 -0.00721737900824 -0.000626682212921)
(0 -0.0106153294775 -0.000643559189926)
(0 -0.0150844705137 -0.000652643666712)
(0 -0.0208865233795 -0.000652839209562)
(0 -0.028199631389 -0.000641706741797)
(0 -0.0368474624161 -0.000614658519958)
(0 -0.0457511612272 -0.000564307009601)
(0 -0.0522743942921 -0.000481880417938)
(-1.96139555436e-17 -0.0525848742997 -0.00036498030805)
(5.13941110518e-18 -0.04450079999 -0.000231205252245)
(0 -0.0306305669063 -0.00011630394084)
(0 -0.0167260306602 -4.43274548837e-05)
(0 -0.00685317322497 -1.16533556397e-05)
(4.84547148347e-20 -0.00117140331242 -1.97944797729e-06)
(0 -0.00122767652351 -3.1555350523e-06)
(0 0.000205381461079 0.00191616738413)
(0 0.000597152839041 0.00190871793955)
(0 0.000945333363289 0.0018961167127)
(0 0.00124227634076 0.00188077085496)
(0 0.00148652000162 0.00186439378671)
(0 0.00168080023511 0.00184764897325)
(0 0.00183020781622 0.00183015966638)
(0 0.00194086472037 0.00181072002571)
(0 0.00201912855842 0.00178757630639)
(0 0.00207118122802 0.00175870493929)
(0 0.00210284381076 0.00172205667508)
(0 0.00211949885792 0.00167575791444)
(0 0.00212604610785 0.00161826900055)
(0 0.00212685217856 0.00154850145947)
(0 0.00212567734611 0.00146589608492)
(0 0.00212557600052 0.00137046332724)
(0 0.00212877475386 0.00126278743261)
(0 0.00213653555471 0.00114399636509)
(0 0.00214901172905 0.00101570068798)
(0 0.00216510321278 0.000879906067129)
(0 0.00218231366475 0.000738905643427)
(0 0.00219660680353 0.000595159911136)
(6.13044369937e-17 0.00220225233632 0.000451172635682)
(0 0.00219164332419 0.000309371538519)
(0 0.00215505673297 0.00017200184304)
(0 0.00208031692737 4.10393441557e-05)
(0 0.00195230722381 -8.18723805898e-05)
(0 0.00175225590915 -0.000195458376235)
(4.06359944436e-17 0.00145669821276 -0.000298822433094)
(4.25911194934e-17 0.00103598186825 -0.000391432994099)
(0 0.000452138537553 -0.000473088225155)
(0 -0.000344113434296 -0.00054386403016)
(0 -0.00141752818418 -0.000604048137931)
(0 -0.00285396991336 -0.000654061380244)
(0 -0.00476772052686 -0.000694363422816)
(0 -0.00731006799316 -0.00072533340866)
(2.95900843159e-17 -0.0106769536854 -0.000747104184802)
(0 -0.015108429847 -0.000759308920177)
(0 -0.0208601394659 -0.000760669311586)
(0 -0.0280994499512 -0.00074832975212)
(0 -0.0366333827563 -0.000716913372621)
(0 -0.0453660449483 -0.000657796413124)
(0 -0.051669749761 -0.000560886512591)
(0 -0.0517912098399 -0.00042385616191)
(-1.07733685623e-17 -0.0436799998136 -0.000267836137873)
(0 -0.0299874789528 -0.000134483349758)
(0 -0.0163502626134 -5.12115287236e-05)
(0 -0.00669450579817 -1.3460937178e-05)
(0 -0.00113866922434 -2.29134807558e-06)
(0 -0.0012060898256 -3.68070736097e-06)
(0 0.000202041786511 0.00206051818957)
(2.39512753207e-17 0.000587885475664 0.00204982085587)
(0 0.000931852086445 0.00203164177455)
(0 0.00122635310939 0.00200948122838)
(0 0.00146938703265 0.00198612122381)
(0 0.00166281749644 0.00196313493286)
(0 0.00181076760411 0.00194082498623)
(0 0.00191845201557 0.00191841177152)
(0 0.0019914655498 0.00189432261728)
(0 0.00203541166482 0.00186649419978)
(0 0.00205573496711 0.00183264844628)
(0 0.00205765113059 0.00179052883693)
(0 0.00204610497408 0.00173809542189)
(0 0.00202571769165 0.00167368022543)
(0 0.00200070492316 0.00159610473336)
(0 0.00197476038448 0.00150476031637)
(0 0.00195090753755 0.00139965182495)
(0 0.00193132604815 0.00128140460115)
(0 0.00191716156006 0.00115123585499)
(0 0.00190832703761 0.00101089268488)
(2.92451430071e-17 0.00190330170963 0.000862560775597)
(3.06522184978e-17 0.00189892940917 0.000708749752924)
(3.2126992797e-17 0.00189021173476 0.000552162980132)
(-3.3672723112e-17 0.00187008288089 0.000395560937001)
(0 0.00182914208942 0.000241627913984)
(0 0.00175530624338 9.28514118319e-05)
(0 0.00163332865597 -4.8577670871e-05)
(0 0.00144410953329 -0.000180838103048)
(-8.518223899e-17 0.00116369721756 -0.000302521291692)
(4.46403117386e-17 0.000761844751576 -0.000412643485136)
(0 0.000199941366193 -0.000510628810772)
(0 -0.000571916382449 -0.000596266185802)
(0 -0.00161900377847 -0.000669643325685)
(0 -0.00302750308505 -0.000731059553629)
(0 -0.00491166173945 -0.000780915206112)
(0 -0.00742213449146 -0.000819567828133)
(0 -0.0107531927769 -0.000847131785493)
(-3.25059250194e-17 -0.0151413864207 -0.000863174941513)
(3.40698869492e-17 -0.0208356422716 -0.00086623225947)
(0 -0.0279913998994 -0.00085302980355)
(0 -0.0363973720917 -0.000817403190128)
(-1.96139555457e-17 -0.0449394012032 -0.000749514319967)
(0 -0.0510008026977 -0.000638042960264)
(0 -0.050916815177 -0.000480945155239)
(0 -0.0427801227177 -0.000303077459095)
(0 -0.0292852856223 -0.000151871213875)
(0 -0.0159409714601 -5.7777562027e-05)
(-4.06288184217e-19 -0.00652187891217 -1.51841947911e-05)
(0 -0.00110320383485 -2.59099114955e-06)
(0 -0.00118243107507 -4.1981842306e-06)
(0 0.000197529437105 0.00218465793608)
(0 0.000575316008032 0.00216984973066)
(0 0.000913481588832 0.00214451666955)
(0 0.00120466806989 0.00211342316767)
(0 0.00144641256675 0.00208061203545)
(0 0.00163970218716 0.00204877288657)
(0 0.001787622372 0.0020190974709)
(0 0.00189436237483 0.00199143301788)
(0 0.00196460221706 0.00196456927788)
(0 0.00200319096068 0.00193655765882)
(0 0.00201500402461 0.00190501330743)
(0 0.00200488718363 0.0018673821509)
(0 0.0019776242915 0.00182116937182)
(0 0.0019378910393 0.00176413065125)
(0 0.00189017517919 0.00169442793733)
(0 0.00183865563421 0.00161075041782)
(0 0.00178704056559 0.0015124002)
(0 0.00173836921953 0.00139934157062)
(0 0.00169478510381 0.00127221278794)
(0 0.0016572890681 0.0011323002191)
(0 0.00162548018148 0.000981476153643)
(0 0.00159728967211 0.000822103677874)
(3.36727231119e-17 0.00156870826124 0.000656914314753)
(0 0.00153349959008 0.000488866416029)
(0 0.0014828817537 0.000320994148199)
(0 0.00140514487846 0.000156257997987)
(0 0.00128515471961 -2.59226104287e-06)
(0 0.00110366964614 -0.000153132327419)
(0 0.000836369843599 -0.000293348201099)
(0 0.000452461317687 -0.000421686279611)
(4.9039219036e-17 -8.73282968334e-05 -0.000537066896594)
(0 -0.000833598900668 -0.000638862002508)
(0 -0.00185225976443 -0.000726839023874)
(0 -0.00322993958681 -0.000801072368314)
(2.95900843185e-17 -0.00508096665412 -0.000861820549137)
(0 -0.00755542687575 -0.000909358936522)
(0 -0.0108458802859 -0.000943743036929)
(-3.40698869512e-17 -0.0151851418072 -0.00096445127343)
(0 -0.0208148703183 -0.00096981847369)
(0 -0.0278775619705 -0.000956144222656)
(0 -0.036142197927 -0.000916473284482)
(0 -0.0444755136123 -0.0008397729556)
(-2.15467371244e-17 -0.0502744984537 -0.000713594487803)
(0 -0.0499718010726 -0.000536411513064)
(-5.91749430173e-18 -0.0418127621126 -0.00033702444628)
(0 -0.0285337627282 -0.000168514160066)
(0 -0.0155041031483 -6.40433368219e-05)
(0 -0.00633784771634 -1.68278636996e-05)
(0 -0.00106557530197 -2.87938157821e-06)
(0 -0.00115699904069 -4.71069234135e-06)
(0 0.000191666612109 0.00229531120997)
(-2.63114613438e-17 0.000558908601958 0.00227558715658)
(0 0.00088932275458 0.00224159515523)
(0 0.00117596284328 0.00219947554876)
(0 0.00141600849721 0.00215466760992)
(0 0.00160959968253 0.00211114051279)
(0 0.00175874879604 0.00207115837783)
(0 0.0018665327181 0.00203538660882)
(0 0.00193659020943 0.0020031647661)
(0 0.00197285892068 0.00197283241686)
(0 0.00197946380993 0.00194204952359)
(0 0.00196068047184 0.00190808792817)
(0 0.00192091831153 0.00186808803996)
(4.62426728657e-17 0.00186468830147 0.00181928150415)
(4.84675527908e-17 0.00179653502793 0.00175918176781)
(-5.07994786616e-17 0.00172092313756 0.0016857433717)
(0 0.00164207535496 0.00159748921812)
(0 0.00156376403606 0.00149360382594)
(2.92451430096e-17 0.00148906147349 0.00137399001195)
(3.06522184968e-17 0.00142005615533 0.00123928663936)
(0 0.00135754286463 0.00109084607961)
(6.73454462285e-17 0.00130069359619 0.000930671758004)
(0 0.00124671320948 0.000761318500195)
(0 0.00119047790553 0.00058576111455)
(7.7541236946e-17 0.00112414530628 0.000407239449731)
(0 0.00103671140158 0.000229090602854)
(0 0.00091347122999 5.45806139072e-05)
(0 0.000735316094007 -0.000113251539049)
(0 0.000477769339895 -0.000271725689534)
(-4.90392190378e-17 0.000109624094127 -0.00041861817415)
(0 -0.000409000999295 -0.000552218680122)
(0 -0.00112942591682 -0.00067134268984)
(0 -0.00211827930461 -0.000775298483547)
(0 -0.00346276068306 -0.000863808364241)
(0 -0.0052774115482 -0.000936881235034)
(0 -0.00771184788189 -0.000994625883577)
(0 -0.0109569258211 -0.00103697818545)
(0 -0.0152415562123 -0.00106328690575)
(3.7427172518e-17 -0.0207996631775 -0.00107166141844)
(0 -0.0277599142683 -0.00105795811831)
(0 -0.0358703621193 -0.00101442174269)
(0 -0.0439781607855 -0.000928843148969)
(0 -0.0494969599601 -0.000787752850866)
(0 -0.0489651270172 -0.000590398155235)
(6.20220349908e-18 -0.0407882085741 -0.000369762218059)
(0 -0.0277415746816 -0.000184455195251)
(0 -0.0150449169438 -7.00255403349e-05)
(0 -0.00614467003959 -1.83964148797e-05)
(0 -0.00102628824297 -3.15748253316e-06)
(0 -0.00113005406412 -5.22090959578e-06)
(0 0.000184338516284 0.00239788193704)
(0 0.000538300474773 0.00237256153256)
(0 0.000858719143264 0.00232859820327)
(0 0.00113923832656 0.0022735479725)
(0 0.0013768050051 0.00221431204179)
(0 0.00157077672777 0.002156245214)
(0 0.00172209784883 0.00210282846584)
(0 0.00183268519473 0.0020557168248)
(0 0.00190504489728 0.0020149841715)
(0 0.00194207573236 0.00197944310145)
(0 0.0019469940805 0.00194697314696)
(0 0.0019233207785 0.00191482817211)
(0 0.00187488408684 0.00187991408983)
(0 0.00180580716218 0.00183903670567)
(0 0.0017204598147 0.00178912165795)
(-5.32436007918e-17 0.00162336270713 0.00172740760549)
(0 0.00151903818783 0.00165161203087)
(0 0.00141180637151 0.00156006730668)
(0 0.00130552841451 0.00145182347932)
(0 0.00120330143222 0.00132671375587)
(0 0.00110711114462 0.00118537901102)
(-3.52928233577e-17 0.00101744884247 0.00102924876423)
(3.69908717009e-17 0.000932898093827 0.000860477997906)
(0 0.000849692982244 0.000681841824705)
(0 0.000761242592862 0.000496593174845)
(0 0.000657604836906 0.000308292048601)
(0 0.000524875364382 0.00012061801762)
(0 0.000344433132278 -6.28199789943e-05)
(0 9.19520778311e-05 -0.000238661406149)
(0 -0.000263952605893 -0.000403944808511)
(0 -0.00076362490652 -0.000556218746711)
(0 -0.00145905182564 -0.000693603417427)
(0 -0.002417614106 -0.000814796596046)
(0 -0.00372718099193 -0.00091901948193)
(6.5011850037e-17 -0.00550264088042 -0.0010058968484)
(3.40698869519e-17 -0.0078932639083 -0.0010752589186)
(-3.5709095988e-17 -0.0110882549768 -0.00112683591566)
(0 -0.0153125147101 -0.00115978572198)
(0 -0.0207918510521 -0.00117195080753)
(0 -0.0276403456779 -0.00115871606779)
(0 -0.0355841439751 -0.0011115096411)
(0 -0.0434506999631 -0.00101696268677)
(0 -0.0486736196972 -0.000860702839089)
(0 -0.0479047696048 -0.000643030147295)
(6.50061094789e-18 -0.0397156178792 -0.000401367146387)
(0 -0.0269164032236 -0.000199734031757)
(0 -0.0145680601601 -7.57398150901e-05)
(0 -0.00594433792782 -1.98940634943e-05)
(0 -0.000985790153981 -3.42622204601e-06)
(0 -0.00110182246617 -5.73150184426e-06)
(0 0.000175503569062 0.00249644883764)
(-2.89042227913e-17 0.000513334312927 0.00246503038304)
(0 0.000821316100535 0.00241007843351)
(0 0.0010938455938 0.00234052575939)
(0 0.00132777712354 0.00226472206588)
(-3.4881403348e-17 0.001521785516 0.00218944616566)
(0 0.00167579611899 0.00211949016466)
(0 0.00179056347012 0.00205763920251)
(0 0.00186741239293 0.00200487311336)
(0 0.00190811342507 0.00196066513323)
(0 0.00191484889092 0.00192330482318)
(0 0.00189022660987 0.00189021049729)
(0 0.0018373057359 0.00185821881163)
(0 0.00175960794624 0.00182384978775)
(0 0.00166109481087 0.00178354898682)
(0 0.00154609818017 0.00173390831846)
(0 0.00141919508312 0.0016718652067)
(0 0.00128502230012 0.00159487780819)
(0 0.00114802881017 0.00150107225595)
(0 0.00101216688383 0.00138935682023)
(0 0.000880524685173 0.00125949750014)
(0 0.000754904664229 0.00111214999432)
(0 0.000635352323951 0.000948844234814)
(0 0.00051963838882 0.000771919778933)
(0 0.000402692898546 0.000584413286166)
(0 0.000275980912288 0.000389902962919)
(0 0.000126794713846 0.000192318920339)
(0 -6.25850579974e-05 -4.26762013666e-06)
(0 -0.000315938654369 -0.000195860069328)
(0 -0.00066448817091 -0.000378739034682)
(0 -0.00114878353137 -0.000549633470928)
(0 -0.0018213243164 -0.000705843832478)
(0 -0.00275019520492 -0.000845303468527)
(-6.5011850036e-17 -0.00402398151028 -0.000966567069138)
(0 -0.00575803127054 -0.00106871505734)
(0 -0.0081014026227 -0.00115115711415)
(0 -0.0112417387618 -0.00121330197127)
(0 -0.0153998844157 -0.0012540290214)
(0 -0.02079323572 -0.00127085118443)
(0 -0.0275206591227 -0.00125863797057)
(0 -0.0352856289907 -0.00120797456342)
(0 -0.0428961292065 -0.00110434733092)
(0 -0.0478093219758 -0.00093261043176)
(0 -0.0467978571132 -0.00069441982483)
(0 -0.0386031499983 -0.000431909372225)
(0 -0.0260650576166 -0.000214388040463)
(0 -0.0140776336946 -8.12010591894e-05)
(0 -0.00573860561772 -2.13248435509e-05)
(0 -0.000944477206212 -3.68650850399e-06)
(0 -0.0010725003585 -6.24516422833e-06)
(-2.89042227917e-17 0.000165196169395 0.00259382605012)
(-3.02948955405e-17 0.000484069630767 0.00255602666718)
(0 0.00077708822999 0.00248944336335)
(0 0.00103953813316 0.00240426797963)
(0 0.00126832889804 0.00231020335336)
(-3.65596569873e-17 0.00146158417115 0.00221541598585)
(0 0.00161830410056 0.00212604320373)
(0 0.00173812774066 0.00204609853199)
(0 0.00182119802311 0.00197761539499)
(0 0.00186811255311 0.00192090784331)
(0 0.0018799343021 0.00187487271531)
(-4.846755279e-17 0.00185823477416 0.00183729393772)
(0 0.00180514475954 0.00180513285626)
(0 0.00172339169597 0.00177480072944)
(5.58053172993e-17 0.00161630656743 0.00174241439562)
(0 0.00148778670798 0.00170403674891)
(3.06522184972e-17 0.00134220385437 0.0016559022272)
(0 0.00118424940971 0.00159462535431)
(-3.36727231136e-17 0.00101871128884 0.0015173882979)
(0 0.000850178974136 0.00142210174739)
(0 0.000682675497732 0.00130753241589)
(0 0.000519216853418 0.00117339015521)
(0 0.000361300498732 0.00102036816847)
(0 0.000208324575145 0.000850131113441)
(0 5.69372615057e-05 0.000665248166512)
(4.67880970496e-17 -9.96901150213e-05 0.000469071385269)
(4.90392190387e-17 -0.000272683888722 0.000265563937156)
(0 -0.000478419507282 5.90876778198e-05)
(0 -0.00073966942388 -0.000145835352854)
(0 -0.00108705409805 -0.000344768458377)
(-5.91801686362e-17 -0.00156095522768 -0.000533590707658)
(0 -0.00221410939034 -0.000708689031277)
(0 -0.00311514805615 -0.00086708965602)
(0 -0.00435333534561 -0.00100650837906)
(0 -0.00604454197427 -0.00112529975605)
(0 -0.00833773516468 -0.00122228074985)
(-3.92279110868e-17 -0.0114191084164 -0.00129638934175)
(0 -0.0155054588003 -0.00134610699915)
(0 -0.0208055598899 -0.00136852743898)
(-2.25834181772e-17 -0.0274025628707 -0.00135794032637)
(0 -0.0349767228154 -0.00130404838917)
(0 -0.0423171292683 -0.00119120516569)
(0 -0.0469083980805 -0.00100363347142)
(0 -0.0456507732919 -0.000744673709132)
(0 -0.0374580809647 -0.000461456455294)
(3.74238676888e-18 -0.0251935667137 -0.000228453793553)
(0 -0.0135772481391 -8.64239569138e-05)
(0 -0.00552901374507 -2.26927431906e-05)
(6.73276079448e-20 -0.000902699314817 -3.93925473126e-06)
(0 -0.00104225690228 -6.76466647332e-06)
(0 0.000153523070301 0.00269164798712)
(0 0.000450775814819 0.00264742764165)
(0 0.000726338751012 0.00256899768426)
(0 0.000976488896957 0.00246761917793)
(0 0.00119833812179 0.00235417391467)
(0 0.00138961605467 0.00223810262318)
(0 0.00154853343868 0.00212685424399)
(0 0.00167371014317 0.0020257160327)
(0 0.0017641575774 0.00193788671253)
(-4.62426728657e-17 0.00181930486898 0.0018646821873)
(0 0.00183905622831 0.00180579993967)
(0 0.00182386540478 0.00175960010752)
(0 0.00177481253244 0.00172338357605)
(0 0.00169366878786 0.00169366060181)
(0 0.0015829348622 0.0016664097105)
(3.06522184969e-17 0.00144584012912 0.00163732833562)
(0 0.00128629049135 0.00160207584764)
(0 0.00110875419561 0.00155650760187)
(0 0.000918076394218 0.00149689634307)
(0 0.000719214873095 0.00142013519804)
(0 0.000516891065456 0.00132391489268)
(0 0.000315152140493 0.0012068668449)
(0 0.000116841358628 0.00106866349277)
(4.46403117391e-17 -7.70253752572e-05 0.000910067699801)
(0 -0.000267979441513 0.000732924433776)
(0 -0.000460921823362 0.000540090351309)
(5.13986495608e-17 -0.000665061364793 0.000335300571286)
(0 -0.000894997108732 0.000122976872621)
(0 -0.00117199728376 -9.2012421412e-05)
(0 -0.00152556440127 -0.000304624049496)
(0 -0.00199542592885 -0.00050991989536)
(0 -0.0026341483201 -0.000703327748575)
(0 -0.00351061983048 -0.000880852224559)
(0 -0.00471463037171 -0.00103920452645)
(0 -0.00636255265816 -0.00117581907712)
(0 -0.00860334133005 -0.00128872075229)
(0 -0.0116218527509 -0.00137619235236)
(0 -0.0156308860472 -0.00143616122412)
(0 -0.0208304622562 -0.00146517893025)
(0 -0.0272876479362 -0.00145686423904)
(0 -0.0346591494953 -0.00139998030069)
(2.60024437906e-17 -0.0417160854555 -0.0012777548822)
(-1.36267514286e-17 -0.045974715919 -0.00107393514832)
(0 -0.0444692327108 -0.000793901268878)
(0 -0.0362868895294 -0.000490078106271)
(0 -0.0243072537569 -0.000241969143414)
(0 -0.0130700706443 -9.14237146216e-05)
(0 -0.00531690979363 -2.40018936631e-05)