/*--------------------------------*- C++ -*----------------------------------*\
| =========                 |                                                 |
| \\      /  F ield         | OpenFOAM: The Open Source CFD Toolbox           |
|  \\    /   O peration     | Version:  3.0.1                                 |
|   \\  /    A nd           | Web:      www.OpenFOAM.org                      |
|    \\/     M anipulation  |                                                 |
\*---------------------------------------------------------------------------*/
FoamFile
{
    version     2.0;
    format      ascii;
    class       volTensorField;
    location    "50000";
    object      grad(U);
}
// * * * * * * * * * * * * * * * * * * * * * * * * * * * * * * * * * * * * * //

dimensions      [0 0 -1 0 0 0 0];

internalField   nonuniform List<tensor> 
2500
(
(0 0 0 -0.00848953933789 1.20778508958e-11 7.27148479441e-14 -0.00848926153241 -7.81585563289e-14 -1.20421682955e-11)
(0 0 0 -0.0249518033475 1.17672863963e-11 2.1222524519e-13 -0.00850094673804 -2.27028327085e-13 -1.17579613066e-11)
(0 3.36519154566e-26 -4.20648943207e-27 -0.040347387545 1.12246259195e-11 3.43313856616e-13 -0.0085243583139 -3.57563317115e-13 -1.12369723421e-11)
(0 0 0 -0.0546846313566 1.05160133486e-11 4.59657387123e-13 -0.00855949140938 -4.76242654766e-13 -1.05182525903e-11)
(0 0 0 -0.0680961491613 9.64987760007e-12 5.56519319712e-13 -0.00860499783895 -5.87082309549e-13 -9.65392950828e-12)
(2.1301201953e-14 3.87466606353e-26 -4.84333257941e-27 -0.0807881941452 8.66668133581e-12 6.4600749965e-13 -0.00865791371221 -6.78396000024e-13 -8.68291640758e-12)
(1.11630347701e-14 0 0 -0.0929965640196 7.61671560838e-12 7.23418722312e-13 -0.0087140537143 -7.57403424227e-13 -7.62403564915e-12)
(1.17001233594e-14 4.25648008218e-26 0 -0.10495899683 6.51241795955e-12 7.88668660322e-13 -0.00876861445659 -8.24740053625e-13 -6.51576826386e-12)
(0 0 0 -0.116901947537 5.37375725015e-12 8.46257948784e-13 -0.00881672580163 -8.78859214674e-13 -5.37074901156e-12)
(0 0 0 -0.129036428415 4.21518433851e-12 8.92092969215e-13 -0.00885386643198 -9.2495519673e-13 -4.21128904842e-12)
(0 0 0 -0.141558535728 3.05136991599e-12 9.33224180846e-13 -0.0088761455683 -9.57343739239e-13 -3.04933491199e-12)
(0 0 0 -0.154652028343 1.89312403454e-12 9.67318341129e-13 -0.0088804765021 -9.79949784183e-13 -1.89399281985e-12)
(7.39948103469e-15 5.38383103753e-26 -4.20611799807e-28 -0.168491656677 7.51263610626e-13 9.94489646139e-13 -0.00886466638727 -9.93672687272e-13 -7.57177578515e-13)
(0 0 0 -0.183246725248 -3.58464656293e-13 1.01780920538e-12 -0.00882744004949 -9.96992911221e-13 3.57139538463e-13)
(0 0 0 -0.199084769882 -1.44014053429e-12 1.0358873644e-12 -0.008768410227 -9.92323160021e-13 1.44058020143e-12)
(0 0 0 -0.216175410617 -2.48855250334e-12 1.04835103904e-12 -0.0086880045898 -9.81374318309e-13 2.48987942974e-12)
(0 0 0 -0.234694514031 -3.49930013588e-12 1.0555430062e-12 -0.00858735928849 -9.64825469422e-13 3.49996173222e-12)
(0 0 0 -0.25482882662 -4.46889471695e-12 1.05922080958e-12 -0.00846818920818 -9.41966036999e-13 4.46859199541e-12)
(0 0 0 -0.276781257434 -5.39249268038e-12 1.05810209355e-12 -0.00833264525388 -9.14956976068e-13 5.39396213992e-12)
(0 0 0 -0.300777012673 -6.27191371967e-12 1.05227789705e-12 -0.00818316913489 -8.84511924115e-13 6.27371956601e-12)
(0 0 0 -0.327070827491 -7.10515944172e-12 1.04229189913e-12 -0.00802235428053 -8.50697745959e-13 7.10748952847e-12)
(0 0 0 -0.355955608072 -7.89106255678e-12 1.02779392074e-12 -0.00785282049086 -8.14425251896e-13 7.89283423186e-12)
(0 0 0 -0.387772900536 -8.63030109052e-12 1.00908619899e-12 -0.00767710717302 -7.7573527655e-13 8.63014655331e-12)
(0 0 0 -0.422925751134 -9.32104582876e-12 9.85029755719e-13 -0.00749758823875 -7.35980909794e-13 9.31948092159e-12)
(0 0 0 -0.46189473048 -9.96109028574e-12 9.55720869619e-13 -0.00731640897605 -6.94966146692e-13 9.95967989101e-12)
(0 0 0 -0.505258186328 -1.05514284398e-11 9.20732098829e-13 -0.00713544420886 -6.53039969942e-13 1.05502315234e-11)
(0 0 0 -0.553718199558 -1.10918188694e-11 8.78387992593e-13 -0.00695627504247 -6.11494616221e-13 1.10913646909e-11)
(0 0 0 -0.608134299362 -1.15818966036e-11 8.28505006305e-13 -0.00678018123962 -5.69899132669e-13 1.15812366238e-11)
(0 0 0 -0.669567822436 -1.20214491906e-11 7.71077088301e-13 -0.00660814537536 -5.27464307778e-13 1.20192458581e-11)
(0 0 0 -0.739340995725 -1.2407144422e-11 7.04409219837e-13 -0.00644086530131 -4.84810790839e-13 1.24049944823e-11)
(0 0 0 -0.819116543327 -1.27381515283e-11 6.24831206512e-13 -0.00627877085562 -4.44096720807e-13 1.27364946387e-11)
(0 0 0 -0.911006095868 -1.30135726678e-11 5.30423135291e-13 -0.00612204115768 -4.05088356258e-13 1.30119749015e-11)
(0 0 0 -1.01771919217 -1.32295884999e-11 4.18678455443e-13 -0.00597061811116 -3.67491311419e-13 1.32285474659e-11)
(0 0 0 -1.14276944405 -1.33845626874e-11 2.86614345222e-13 -0.00582421050839 -3.30667188529e-13 1.33829863364e-11)
(0 0 0 -1.29076033385 -1.34730817221e-11 1.29155361241e-13 -0.00568228037606 -2.94884405184e-13 1.3471242453e-11)
(0 0 0 -1.46777843561 -1.34882860475e-11 -6.09492543962e-14 -0.00554399655664 -2.60919866636e-13 1.34876213134e-11)
(0 0 0 -1.68191989588 -1.34250340489e-11 -2.92345378182e-13 -0.00540812715809 -2.28567669056e-13 1.34250819139e-11)
(0 0 0 -1.9439449803 -1.32733009321e-11 -5.76851951506e-13 -0.00527281428817 -1.97629243605e-13 1.32741432087e-11)
(0 0 0 -2.26793043741 -1.30213769557e-11 -9.3099989021e-13 -0.00513511381185 -1.68371128628e-13 1.30225667819e-11)
(0 0 0 -2.67139235271 -1.26526421484e-11 -1.37639765825e-12 -0.00499006272434 -1.41025296027e-13 1.26540080084e-11)
(0 0 0 -3.17327036205 -1.21454932637e-11 -1.93877078816e-12 -0.00482882787423 -1.15672874623e-13 1.21477616333e-11)
(0 0 0 -3.78586850546 -1.14767528632e-11 -2.64152606949e-12 -0.00463532557669 -9.23917651346e-14 1.14785023283e-11)
(0 0 0 -4.4948929891 -1.06204544374e-11 -3.48678081132e-12 -0.0043815956197 -7.16453146626e-14 1.06199846149e-11)
(0 0 0 -5.23114998252 -9.55979408157e-12 -4.4211088833e-12 -0.00402745976542 -5.33186669975e-14 9.55508500324e-12)
(0 0 0 -5.87188705384 -8.29972974938e-12 -5.32392826913e-12 -0.00353960388475 -3.73025491664e-14 8.29362160377e-12)
(0 0 0 -6.31429976504 -6.88389709226e-12 -6.07132107028e-12 -0.00292975042508 -2.43291004541e-14 6.88231516414e-12)
(0 0 0 -6.55669182094 -5.38551934411e-12 -6.62748225435e-12 -0.0022577418716 -1.41926603578e-14 5.38568582309e-12)
(0 0 0 -6.67671279941 -3.84205618292e-12 -7.04707870928e-12 -0.00158178523917 -6.89034614051e-15 3.85424904118e-12)
(0 0 0 -6.74859514252 -2.27237422074e-12 -7.39816355653e-12 -0.000928800349805 -2.27559860596e-15 2.31480392774e-12)
(0 0 0 -6.80739351999 -8.28620879813e-13 -7.71852338932e-12 -0.000304747910961 -1.1457832951e-16 7.79788318144e-13)
(0 0 0 -0.00850122454353 1.17762518436e-11 2.14830081423e-13 -0.0249510754563 -2.24392437505e-13 -1.17661895274e-11)
(0 0 0 -0.0249880265332 1.1481601188e-11 6.27779218938e-13 -0.0249872964014 -6.50864932854e-13 -1.14798940497e-11)
(0 0 0 -0.0404105206759 1.09574363468e-11 1.00804439578e-12 -0.0250594675152 -1.03241082207e-12 -1.09622346061e-11)
(0 0 0 -0.0547756224011 1.02580189449e-11 1.34616380332e-12 -0.0251672702728 -1.37854712153e-12 -1.02622753097e-11)
(0 0 0 -0.0682124035413 9.41206064184e-12 1.63601651859e-12 -0.025306639497 -1.69352626882e-12 -9.41604533077e-12)
(1.11630347701e-14 4.06108839164e-26 -1.01527209791e-26 -0.0809230616061 8.45655169348e-12 1.89478948212e-12 -0.0254689364323 -1.96209543661e-12 -8.46228170844e-12)
(0 0 0 -0.0931399047903 7.4275137208e-12 2.11836298964e-12 -0.0256420133501 -2.19428030157e-12 -7.43215838151e-12)
(0 0 5.57659084924e-27 -0.105098179124 6.3479506942e-12 2.30777655965e-12 -0.025811894767 -2.39243713887e-12 -6.34827000126e-12)
(0 0 0 -0.117022887734 5.23142710642e-12 2.47216596333e-12 -0.0259643347956 -2.55381767855e-12 -5.23322024271e-12)
(1.3471468208e-14 4.90089158412e-26 -6.12611448015e-27 -0.12912452539 4.098614072e-12 2.61106355654e-12 -0.0260860057636 -2.68308348933e-12 -4.10246116441e-12)
(0 0 0 -0.141599471884 2.96576498466e-12 2.73162682174e-12 -0.0261653166151 -2.77749637952e-12 -2.96651945879e-12)
(1.47989620691e-14 5.38383103745e-26 -1.6824471992e-27 -0.154632446304 1.83394654053e-12 2.83171930652e-12 -0.0261929301344 -2.84305807097e-12 -1.8402564399e-12)
(7.75549325837e-15 5.6428640225e-26 -8.81697503515e-28 -0.168399720071 7.22417265871e-13 2.91583533962e-12 -0.0261620458554 -2.87910726766e-12 -7.30034066452e-13)
(0 0 0 -0.1830725625 -3.55697976709e-13 2.98311052266e-12 -0.0260684969704 -2.89055136875e-12 3.56780840801e-13)
(0 0 0 -0.198820793838 -1.41039962201e-12 3.03331769742e-12 -0.0259106947807 -2.88067850193e-12 1.41279629336e-12)
(0 0 0 -0.215816506847 -2.43392552023e-12 3.06964474374e-12 -0.0256894472826 -2.84996817511e-12 2.43452017741e-12)
(0 0 0 -0.234238095354 -3.4173283231e-12 3.09132050012e-12 -0.025407677345 -2.80221101343e-12 3.41847150063e-12)
(0 0 0 -0.254274758999 -4.36036993601e-12 3.10091401017e-12 -0.0250700674292 -2.73779960577e-12 4.36189930151e-12)
(0 0 0 -0.276131671547 -5.26151612902e-12 3.09735656305e-12 -0.0246826594089 -2.66041470704e-12 5.26222220798e-12)
(0 0 0 -0.300036022106 -6.11840219735e-12 3.08192934322e-12 -0.0242524382022 -2.5709514312e-12 6.1187703981e-12)
(0 0 0 -0.326244179219 -6.92974223648e-12 3.05179193512e-12 -0.0237869258363 -2.47419517417e-12 6.9299314991e-12)
(0 0 0 -0.355050292834 -7.69442793577e-12 3.0074985384e-12 -0.0232938080823 -2.37087287829e-12 7.69544391237e-12)
(0 0 0 -0.386796749437 -8.41472757229e-12 2.95346888606e-12 -0.0227806104227 -2.25776322095e-12 8.41419997514e-12)
(6.50233326841e-15 4.73107012543e-26 1.18276753136e-26 -0.42188704076 -9.08839311728e-12 2.88513582793e-12 -0.022254433551 -2.14003061832e-12 9.08562678552e-12)
(0 0 0 -0.460801813963 -9.71071425573e-12 2.79897213248e-12 -0.0217217521513 -2.02116291127e-12 9.70991680994e-12)
(0 0 0 -0.504119161896 -1.02874237184e-11 2.6975509524e-12 -0.0211882756805 -1.89804703896e-12 1.02858489036e-11)
(0 0 0 -0.552540621663 -1.08161748503e-11 2.57607375293e-12 -0.0206588654582 -1.77459145451e-12 1.08134585835e-11)
(0 0 0 -0.606924931873 -1.12898352841e-11 2.42954244547e-12 -0.0201374993831 -1.653777185e-12 1.12919668226e-11)
(-8.22451015649e-15 -2.9920593648e-26 -1.4960296824e-26 -0.668332428119 -1.17115355897e-11 2.26000420289e-12 -0.0196272742476 -1.53117968212e-12 1.17204786214e-11)
(-8.62021711653e-15 -3.13601671825e-26 -1.56800835912e-26 -0.738084150308 -1.20890820139e-11 2.06099169904e-12 -0.0191304345859 -1.40993119688e-12 1.20968150095e-11)
(0 0 0 -0.817841455262 -1.24193481626e-11 1.82707084999e-12 -0.0186484167696 -1.29095021837e-12 1.24199983595e-11)
(0 0 0 -0.909714403306 -1.26924726834e-11 1.5515091726e-12 -0.0181818966471 -1.17491470376e-12 1.2688320455e-11)
(0 0 0 -1.01641068966 -1.29025736177e-11 1.22478884897e-12 -0.0177308276326 -1.06324597949e-12 1.28993095546e-11)
(0 0 0 -1.1414416577 -1.30502008084e-11 8.37391205608e-13 -0.0172944523774 -9.54824327286e-13 1.30499045465e-11)
(0 0 0 -1.28940779325 -1.31365276666e-11 3.73828883035e-13 -0.0168712621955 -8.50967397717e-13 1.31355957311e-11)
(0 0 0 -1.4663913445 -1.31528756454e-11 -1.84830195e-13 -0.0164588600947 -7.51545577442e-13 1.31511723292e-11)
(0 0 0 -1.68048159412 -1.30895119904e-11 -8.64393075248e-13 -0.0160536423627 -6.56512965289e-13 1.30895024071e-11)
(-6.277020037e-15 -1.14178329332e-26 -1.14178329332e-26 -1.94242691339 -1.29388715073e-11 -1.70046156866e-12 -0.0156501297693 -5.66331755677e-13 1.29414793144e-11)
(0 0 0 -2.2662819101 -1.26918219563e-11 -2.74111907573e-12 -0.0152396005249 -4.81498340377e-13 1.26948144205e-11)
(0 0 0 -2.66951951586 -1.23310952771e-11 -4.04905017037e-12 -0.014807318838 -4.02371544931e-13 1.23336555824e-11)
(0 0 0 -3.17099486644 -1.18345054407e-11 -5.69905564247e-12 -0.0143270355482 -3.29173574645e-13 1.18377948951e-11)
(0 0 0 -3.78285858283 -1.1181776404e-11 -7.75924271637e-12 -0.0137509598367 -2.62658044957e-13 1.11827147445e-11)
(3.96976077014e-15 3.61047638774e-27 0 -4.49060209027 -1.03461049172e-11 -1.02322101014e-11 -0.0129960883739 -2.02349866096e-13 1.0343036229e-11)
(0 0 0 -5.22492136203 -9.30708832424e-12 -1.29611398288e-11 -0.0119433896692 -1.49311464827e-13 9.30271604435e-12)
(0 0 0 -5.86338557056 -8.07634960352e-12 -1.55936836955e-11 -0.0104946439744 -1.04381872387e-13 8.07182704487e-12)
(0 0 0 -6.30390968692 -6.69733356786e-12 -1.77669405979e-11 -0.00868527897988 -6.76212434595e-14 6.6963437532e-12)
(0 0 0 -6.5452525104 -5.23810303631e-12 -1.93791626649e-11 -0.00669267547619 -3.93111713112e-14 5.23895810906e-12)
(0 0 0 -6.66489792963 -3.73662679066e-12 -2.05906575337e-11 -0.00468884217003 -1.90067262258e-14 3.74852092925e-12)
(0 0 0 -6.73669697688 -2.20974806131e-12 -2.16005009287e-11 -0.00275321290588 -6.23382243589e-15 2.25093762035e-12)
(0 0 0 -6.79548439876 -8.05763713159e-13 -2.2519114491e-11 -0.000903354823243 -3.17011279991e-16 7.58142238026e-13)
(0 0 0 -0.00852463398149 1.12387548198e-11 3.52391800287e-13 -0.0403464560253 -3.48683245593e-13 -1.12445697072e-11)
(0 0 0 -0.0250601955091 1.09657307851e-11 1.02211371622e-12 -0.0404095797036 -1.01867155842e-12 -1.09645399726e-11)
(0 0 0 -0.0405354462413 1.04680248185e-11 1.62512397083e-12 -0.0405344978355 -1.63198011096e-12 -1.04667516901e-11)
(0 0 0 -0.0549549005701 9.79536268452e-12 2.16360702124e-12 -0.040720078105 -2.18611407793e-12 -9.79554866467e-12)
(0 0 0 -0.0684414565345 8.98371386953e-12 2.63385061869e-12 -0.0409596771153 -2.68217017976e-12 -8.98503153358e-12)
(0 0 0 -0.081190121067 8.06760714418e-12 3.04463653839e-12 -0.0412397126538 -3.11490676501e-12 -8.06928483727e-12)
(0 4.46127267947e-26 -1.11531816987e-26 -0.0934268873565 7.07719169014e-12 3.40156009656e-12 -0.0415411224704 -3.48642584315e-12 -7.08468672366e-12)
(0 0 0 -0.105382352802 6.04028444303e-12 3.70759859515e-12 -0.041841828597 -3.80156076542e-12 -6.04600449064e-12)
(0 0 0 -0.117278651979 4.9736653754e-12 3.97031326431e-12 -0.0421190820678 -4.06044888679e-12 -4.97822159011e-12)
(0 0 0 -0.129325037965 3.89272090541e-12 4.19651311325e-12 -0.042351293312 -4.26375648861e-12 -3.89378858632e-12)
(0 0 0 -0.141718068893 2.80986764973e-12 4.38925407873e-12 -0.0425193273574 -4.41590191585e-12 -2.80755324542e-12)
(0 0 0 -0.154643868728 1.73265935442e-12 4.548249832e-12 -0.0426073575818 -4.52325560424e-12 -1.73104123682e-12)
(0 0 0 -0.168281160036 6.73075965612e-13 4.68129408251e-12 -0.0426033736382 -4.58432095111e-12 -6.71614147473e-13)
(0 0 0 -0.182804525513 -3.60175830485e-13 4.78639083671e-12 -0.0424994128944 -4.60731468873e-12 3.62498616007e-13)
(0 0 0 -0.198387759791 -1.36485305276e-12 4.86562371401e-12 -0.0422915606318 -4.59526894146e-12 1.3677213828e-12)
(0 0 0 -0.21520736936 -2.33726966333e-12 4.92293703259e-12 -0.0419797535303 -4.54980388397e-12 2.33949955605e-12)
(0 0 0 -0.23344636584 -3.27299035754e-12 4.95781771863e-12 -0.0415674177519 -4.47608755868e-12 3.27453436945e-12)
(0 0 0 -0.253298535095 -4.16944111117e-12 4.97159516251e-12 -0.0410609768773 -4.37753343973e-12 4.17132388632e-12)
(0 0 0 -0.27497338489 -5.023474147e-12 4.96535738022e-12 -0.0404692685664 -4.25694094031e-12 5.02646852914e-12)
(0 0 0 -0.298701996245 -5.84055288261e-12 4.93951796947e-12 -0.0398029119588 -4.11757898324e-12 5.83998587487e-12)
(1.18381242535e-14 4.306684515e-26 1.07667112875e-26 -0.324744039479 -6.61935104983e-12 4.89392527468e-12 -0.0390736675444 -3.96245283373e-12 6.6091120792e-12)
(0 0 0 -0.353396276267 -7.3402080173e-12 4.82778386336e-12 -0.038293827037 -3.79471897116e-12 7.33736157131e-12)
(-6.50233326831e-15 -4.73107012535e-26 -1.18276753134e-26 -0.3850029643 -8.01505494433e-12 4.73926662851e-12 -0.0374756642033 -3.61764379544e-12 8.021545523e-12)
(0 0 0 -0.419968720263 -8.66029676093e-12 4.62884624999e-12 -0.0366309684086 -3.43166553456e-12 8.65933596555e-12)
(0 0 0 -0.458774601041 -9.25253955437e-12 4.49299524707e-12 -0.0357706731859 -3.24053770977e-12 9.25320603038e-12)
(-7.48675661029e-15 -2.72366618821e-26 0 -0.501998451837 -9.79514559622e-12 4.3293015602e-12 -0.0349045826155 -3.04574407357e-12 9.80202287148e-12)
(7.84696793529e-15 2.85471030485e-26 0 -0.550340977498 -1.03066995025e-11 4.1351733378e-12 -0.0340411910516 -2.84822232223e-12 1.03033905752e-11)
(0 0 0 -0.604659576353 -1.07613580837e-11 3.90518554051e-12 -0.0331875853479 -2.65059335531e-12 1.07584921906e-11)
(-8.62021711701e-15 -6.27203343685e-26 0 -0.666012804738 -1.11600043885e-11 3.63189409652e-12 -0.0323494147694 -2.45620554584e-12 1.11668097067e-11)
(-9.0349627791e-15 -3.28690031132e-26 -3.28690031132e-26 -0.735719533777 -1.15178133204e-11 3.30981167134e-12 -0.0315309118173 -2.26491718467e-12 1.15255518704e-11)
(-9.46966315525e-15 -3.44504338691e-26 -3.44504338691e-26 -0.815438578333 -1.18266604772e-11 2.93303398119e-12 -0.0307349449731 -2.07526543729e-12 1.18343794131e-11)
(0 0 0 -0.907277045937 -1.20882149988e-11 2.48959635595e-12 -0.0299630839843 -1.88956505197e-12 1.20903536377e-11)
(0 0 0 -1.01393914277 -1.22919644929e-11 1.96600881621e-12 -0.029215654781 -1.70854645997e-12 1.22920734415e-11)
(0 0 0 -1.13893190621 -1.24366819561e-11 1.34371732421e-12 -0.0284917552088 -1.53372731645e-12 1.24359650257e-11)
(5.7139599027e-15 2.07872650306e-26 2.07872650306e-26 -1.28685013278 -1.25216783674e-11 5.99304585489e-13 -0.027789187916 -1.36579856591e-12 1.25181097737e-11)
(0 0 0 -1.46376787118 -1.25345046673e-11 -2.97949449502e-13 -0.0271042361464 -1.20482090102e-12 1.25334536775e-11)
(0 0 0 -1.67776141818 -1.24729168477e-11 -1.39004189394e-12 -0.0264311413247 -1.05130852456e-12 1.24749031646e-11)
(0 -1.19671806608e-26 -2.39343613217e-26 -1.93955668088 -1.23303247389e-11 -2.73417622736e-12 -0.0257610020802 -9.0594000321e-13 1.23337633165e-11)
(0 0 0 -2.26316650764 -1.2095494947e-11 -4.40810160434e-12 -0.0250795198369 -7.70019333434e-13 1.20981021868e-11)
(0 0 0 -2.66598252751 -1.17511357047e-11 -6.51115625969e-12 -0.0243624260545 -6.42950412256e-13 1.17529631427e-11)
(0 0 0 -3.16670088674 -1.12789336214e-11 -9.16312372626e-12 -0.0235664151206 -5.25312819967e-13 1.1278857339e-11)
(0 0 0 -3.77718416673 -1.06523572353e-11 -1.24720386521e-11 -0.0226126532378 -4.18198553413e-13 1.06526017351e-11)
(-4.16075840263e-15 -3.78418772255e-27 -1.51367508902e-26 -4.48252229542 -9.84857688177e-12 -1.64407468031e-11 -0.0213644654816 -3.21620118434e-13 9.85036096358e-12)
(-4.36094552931e-15 -3.96625685363e-27 0 -5.21320930196 -8.86065433471e-12 -2.08150132476e-11 -0.0196266216511 -2.3709181034e-13 8.85710965634e-12)
(0 0 0 -5.84742212471 -7.68883391286e-12 -2.50293238941e-11 -0.0172395344311 -1.65500612794e-13 7.68364359548e-12)
(0 0 0 -6.28442094666 -6.37422249123e-12 -2.85057924053e-11 -0.0142635167075 -1.07127166472e-13 6.37393762031e-12)
(0 0 0 -6.52380847557 -4.98668029825e-12 -3.1085395921e-11 -0.0109897921652 -6.23474816518e-14 4.98715864713e-12)
(0 0 0 -6.64275466326 -3.55803105794e-12 -3.30258715875e-11 -0.00769911974442 -3.02227840293e-14 3.56899362738e-12)
(0 0 0 -6.71439857816 -2.1047046504e-12 -3.4645685624e-11 -0.00452078539099 -9.94021931933e-15 2.14362439715e-12)
(-3.61334690805e-16 0 -1.31452794742e-27 -6.77316552303 -7.67800670132e-13 -3.61215824153e-11 -0.00148331303264 -5.45472476861e-16 7.22217905073e-13)
(0 0 0 -0.00855976051201 1.05214480706e-11 4.76055343805e-13 -0.0546837633758 -4.59907655815e-13 -1.05256825678e-11)
(0 0 0 -0.0251679846096 1.02628763469e-11 1.37572906188e-12 -0.054774733066 -1.34900777303e-12 -1.02632227834e-11)
(0 0 0 -0.0407210194185 9.79568126119e-12 2.18251171363e-12 -0.0549539850728 -2.16712178109e-12 -9.79668889196e-12)
(0 0 0 -0.0552205592191 9.16272404705e-12 2.90440482083e-12 -0.0552196307638 -2.90576547092e-12 -9.16275408886e-12)
(0 0 0 -0.0687816755397 8.39709572915e-12 3.53732068974e-12 -0.0555631684882 -3.56499629208e-12 -8.40043276064e-12)
(0 0 0 -0.0815899932799 7.53555307934e-12 4.08721982325e-12 -0.0559673539201 -4.14368818595e-12 -7.53779246695e-12)
(0 0 0 -0.0938630104051 6.60336449252e-12 4.56440335456e-12 -0.0564077427147 -4.64080353754e-12 -6.60837062021e-12)
(0 0 0 -0.10582479942 5.6260689256e-12 4.97609957035e-12 -0.0568556229261 -5.05991513599e-12 -5.63068628858e-12)
(0 0 0 -0.117693159055 4.6226114876e-12 5.32917363209e-12 -0.0572809158551 -5.40481217871e-12 -4.6253837333e-12)
(0 0 0 -0.129675057459 3.60823006018e-12 5.63080713359e-12 -0.0576545094212 -5.67864877371e-12 -3.60573949752e-12)
(0 0 0 -0.141966601256 2.59085882548e-12 5.88481514811e-12 -0.0579499644555 -5.88706061205e-12 -2.58746357649e-12)
(0 0 0 -0.154755092165 1.57974137722e-12 6.09542099146e-12 -0.0581446942013 -6.03463846092e-12 -1.57830568449e-12)
(0 0 0 -0.168221873964 5.90154302713e-13 6.26844074804e-12 -0.0582207289379 -6.12385744065e-12 -5.87672712077e-13)
(0 0 0 -0.182545402368 -3.72491556297e-13 6.40591421236e-12 -0.0581651475886 -6.16052073353e-12 3.75942405011e-13)
(0 0 0 -0.197904377803 -1.30820480107e-12 6.51092994099e-12 -0.0579702265911 -6.14880084203e-12 1.31143717619e-12)
(0 0 0 -0.214480989032 -2.2137926285e-12 6.58502925801e-12 -0.0576333400066 -6.09425231358e-12 2.21661648368e-12)
(0 0 0 -0.232464415786 -3.08463371485e-12 6.63083019937e-12 -0.057156638982 -6.00059053514e-12 3.0859056922e-12)
(0 3.92036706718e-26 9.80091766795e-27 -0.252054786847 -3.91729749221e-12 6.6486780674e-12 -0.0565465429314 -5.87348355888e-12 3.91863707698e-12)
(0 0 0 -0.273467816498 -4.7109793252e-12 6.63899843405e-12 -0.0558130811176 -5.7176228425e-12 4.71240485636e-12)
(0 0 0 -0.296940366878 -5.4652229056e-12 6.60239624782e-12 -0.0549691315614 -5.53718277551e-12 5.46764870533e-12)
(0 0 0 -0.322737217448 -6.17983717543e-12 6.54290525804e-12 -0.0540296072134 -5.33178214589e-12 6.18153994146e-12)
(0 0 0 -0.351159378109 -6.85492884153e-12 6.45865762831e-12 -0.0530106406944 -5.10660575904e-12 6.85532336661e-12)
(0 0 0 -0.382554370139 -7.48793353855e-12 6.33871381962e-12 -0.0519288132483 -4.87450285298e-12 7.48717842869e-12)
(0 0 0 -0.417329031428 -8.07998347474e-12 6.19080795244e-12 -0.0508004655801 -4.62852172603e-12 8.07847204511e-12)
(0 0 0 -0.455965598987 -8.62922950356e-12 6.01305419714e-12 -0.0496411172157 -4.37107410741e-12 8.62802932016e-12)
(0 0 0 -0.499042105777 -9.13500446329e-12 5.79315824642e-12 -0.0484650085381 -4.11315160676e-12 9.13534822799e-12)
(0 0 0 -0.547258533955 -9.60023584457e-12 5.53093773217e-12 -0.0472847681375 -3.85240665857e-12 9.60110165806e-12)
(0 0 0 -0.601470745634 -1.0025808541e-11 5.22492947169e-12 -0.0461111985801 -3.58672271663e-12 1.00231128514e-11)
(0 3.2869003115e-26 0 -0.662735043214 -1.04078117008e-11 4.86218249769e-12 -0.044953164965 -3.32377838048e-12 1.04015001942e-11)
(0 0 0 -0.732367401269 -1.07392816602e-11 4.43394897875e-12 -0.0438175660542 -3.06474216346e-12 1.07352733395e-11)
(0 0 0 -0.812023127761 -1.10254328219e-11 3.93034654637e-12 -0.0427093631717 -2.8095892746e-12 1.10231688226e-11)
(0 0 0 -0.903805172398 -1.12652901656e-11 3.3368466879e-12 -0.0416316390979 -2.55974973777e-12 1.12623442533e-11)
(0 0 0 -1.01041276621 -1.14514455862e-11 2.63614517138e-12 -0.0405856539344 -2.3153863254e-12 1.14510484488e-11)
(0 0 0 -1.13534676886 -1.15854288161e-11 1.80241753869e-12 -0.0395708559625 -2.07951909486e-12 1.15858225087e-11)
(0 0 0 -1.28319380301 -1.1663416958e-11 8.05762614295e-13 -0.0385847846497 -1.85155545162e-12 1.16630621641e-11)
(0 0 0 -1.46001615366 -1.16765520933e-11 -3.97057206426e-13 -0.037622759597 -1.63367705091e-12 1.16776347453e-11)
(-6.57902714331e-15 -1.19671806593e-26 -4.78687226373e-26 -1.67387153754 -1.16190475797e-11 -1.86205325069e-12 -0.0366771574543 -1.42618021894e-12 1.16232082119e-11)
(0 0 0 -1.93545380065 -1.1488569226e-11 -3.66598727489e-12 -0.035735883315 -1.22993134873e-12 1.1491076078e-11)
(0 0 0 -2.25871630961 -1.127063425e-11 -5.91188982102e-12 -0.0347792346389 -1.0456071799e-12 1.12704032005e-11)
(0 0 0 -2.66093508711 -1.09453144376e-11 -8.73331833614e-12 -0.0337735359693 -8.73020799498e-13 1.09470615353e-11)
(0 0 0 -3.16058068118 -1.05008709033e-11 -1.2290423066e-11 -0.0326585322988 -7.1352300342e-13 1.05026899036e-11)
(0 0 0 -3.76910836248 -9.91501600897e-12 -1.67247814898e-11 -0.0313245464002 -5.67408768077e-13 9.91585308493e-12)
(0 0 0 -4.47104421755 -9.1658285221e-12 -2.20387305755e-11 -0.0295819084338 -4.36963721046e-13 9.16465407823e-12)
(0 0 0 -5.19660770746 -8.24124576858e-12 -2.78863322553e-11 -0.0271612106204 -3.22842155996e-13 8.23630125968e-12)
(0 0 0 -5.82484389617 -7.14687541923e-12 -3.35101796794e-11 -0.0238452068122 -2.25191877163e-13 7.14206527352e-12)
(0 0 0 -6.25690299513 -5.92461743878e-12 -3.81463090325e-11 -0.0197214559328 -1.45950479698e-13 5.92334263205e-12)
(2.63137848564e-15 1.19661239552e-27 1.91457983284e-26 -6.49355783657 -4.63480380875e-12 -4.15892459484e-11 -0.0151924069766 -8.49336484771e-14 4.63447256239e-12)
(0 0 0 -6.61152821726 -3.30637918447e-12 -4.41847831507e-11 -0.0106428511063 -4.10957414549e-14 3.31686968989e-12)
(0 0 0 -6.68295554868 -1.95526164209e-12 -4.63556300818e-11 -0.00624926352047 -1.34406763072e-14 1.99239506002e-12)
(0 0 0 -6.74169375459 -7.12723676372e-13 -4.83354874311e-11 -0.00205044553653 -7.100031282e-16 6.71329255448e-13)
(0 0 0 -0.00860525465876 9.65309944582e-12 5.86017824254e-13 -0.0680955576872 -5.57726387677e-13 -9.65378667925e-12)
(0 0 0 -0.0253073245023 9.41654533176e-12 1.69098051949e-12 -0.0682117761532 -1.63876325097e-12 -9.41557600673e-12)
(0 0 0 -0.0409605890168 8.98769691376e-12 2.68022986895e-12 -0.0684407786179 -2.63582278206e-12 -8.98342173405e-12)
(0 0 0 -0.0555640845803 8.40235428496e-12 3.56476864751e-12 -0.0687809557983 -3.53765816175e-12 -8.39670985047e-12)
(0 0 0 -0.0692242439102 7.69102004747e-12 4.34178993203e-12 -0.0692235075083 -4.34132912474e-12 -7.69072750771e-12)
(0 0 0 -0.0821158942796 6.89054721513e-12 5.01764858624e-12 -0.0697494556118 -5.04628973949e-12 -6.89294710599e-12)
(0 0 0 -0.0944463798015 6.02677604604e-12 5.60164924072e-12 -0.070330990821 -5.65427222753e-12 -6.03006800424e-12)
(0 0 0 -0.106431590695 5.12248769784e-12 6.1047214949e-12 -0.0709346112883 -6.16732624242e-12 -5.12482165024e-12)
(0 0 0 -0.118283461877 4.19496755524e-12 6.5355851585e-12 -0.0715243915724 -6.58998679477e-12 -4.19501187524e-12)
(0 0 0 -0.130205335311 3.25700390011e-12 6.90199598983e-12 -0.0720647055734 -6.92735887817e-12 -3.25537627056e-12)
(0 0 0 -0.142391741854 2.31846145509e-12 7.21006740307e-12 -0.0725222867207 -7.18515780197e-12 -2.31852678288e-12)
(0 0 0 -0.155030283564 1.39064704615e-12 7.46419915226e-12 -0.0728677168314 -7.36999754445e-12 -1.39201757206e-12)
(0 0 0 -0.16830433124 4.83372051903e-13 7.66773754345e-12 -0.0730764646033 -7.48859386862e-12 -4.83896219375e-13)
(0 0 0 -0.182395944161 -3.97954516387e-13 7.82827318075e-12 -0.0731295635171 -7.54322503356e-12 3.99756416667e-13)
(0 0 0 -0.197488821793 -1.252033702e-12 7.95564465595e-12 -0.0730139840275 -7.53317044473e-12 1.25538657429e-12)
(0 0 0 -0.213771315581 -2.07552116895e-12 8.04485408108e-12 -0.072722729251 -7.47192027867e-12 2.07836798141e-12)
(0 0 0 -0.231439643162 -2.86559242096e-12 8.09635105607e-12 -0.0722546739921 -7.36631363679e-12 2.86908115085e-12)
(0 0 0 -0.250701508752 -3.62280670345e-12 8.11505597969e-12 -0.0716141676175 -7.21877608306e-12 3.62298429996e-12)
(0 0 0 -0.271780371847 -4.34307263832e-12 8.10301435876e-12 -0.0708104294326 -7.03342252476e-12 4.34189241981e-12)
(0 0 0 -0.294920636903 -5.02254223945e-12 8.05828349012e-12 -0.0698567758869 -6.81777135624e-12 5.02351425721e-12)
(-6.5023332683e-15 -4.73107012534e-26 -2.36553506267e-26 -0.320394073282 -5.66296441112e-12 7.98156735055e-12 -0.06876972923 -6.57531934841e-12 5.66963425636e-12)
(0 0 0 -0.348507827718 -6.27657660577e-12 7.87265837667e-12 -0.0675680638317 -6.31008591358e-12 6.27587181007e-12)
(7.14308061423e-15 0 2.59863758919e-26 -0.37961447202 -6.84937012881e-12 7.72885074159e-12 -0.066271847861 -6.02705783071e-12 6.84539268332e-12)
(-7.48675661022e-15 -2.72366618818e-26 -2.72366618818e-26 -0.414124653992 -7.37400926626e-12 7.55113594539e-12 -0.0649015339672 -5.7266177257e-12 7.3786653913e-12)
(0 0 0 -0.452523105637 -7.87304967798e-12 7.3303733117e-12 -0.0634771439775 -5.41787932847e-12 7.87303736625e-12)
(1.64490203131e-14 5.98411872964e-26 5.98411872964e-26 -0.495389037361 -8.33976004048e-12 7.06707242063e-12 -0.0620175795723 -5.09904910873e-12 8.32975503407e-12)
(8.62021711687e-15 3.13601671837e-26 3.13601671837e-26 -0.543422346219 -8.75813082784e-12 6.75252495895e-12 -0.0605400771911 -4.77610001238e-12 8.74957174579e-12)
(0 3.28690031135e-26 0 -0.597477639719 -9.13241479e-12 6.37823588377e-12 -0.0590598106733 -4.45263035947e-12 9.13148715053e-12)
(0 0 0 -0.658608902681 -9.47466265787e-12 5.93772560723e-12 -0.0575896335253 -4.12857839535e-12 9.47336148532e-12)
(0 0 0 -0.728128824324 -9.77766610309e-12 5.41888426684e-12 -0.0561399409359 -3.80690753326e-12 9.77531590412e-12)
(0 0 0 -0.807688511109 -1.00355407733e-11 4.80633106973e-12 -0.0547186247474 -3.49098522756e-12 1.00350483543e-11)
(0 0 0 -0.899385759065 -1.02510021124e-11 4.08252426215e-12 -0.0533310864572 -3.18214690284e-12 1.02519917018e-11)
(0 0 0 -1.00591350368 -1.04209742486e-11 3.22673783757e-12 -0.0519802655007 -2.88002808765e-12 1.04226932471e-11)
(0 0 0 -1.13076469919 -1.0542594727e-11 2.20761772454e-12 -0.0506666262463 -2.58796924111e-12 1.05448854329e-11)
(0 0 0 -1.27851546415 -1.06136687573e-11 9.8761633179e-13 -0.0493880198869 -2.30609858284e-12 1.06145810119e-11)
(0 0 0 -1.45521297452 -1.06265904629e-11 -4.84788479392e-13 -0.0481392815268 -2.03558911561e-12 1.06271547571e-11)
(0 0 0 -1.66889114571 -1.05750226611e-11 -2.2795288e-12 -0.0469113039133 -1.77802685511e-12 1.05766989678e-11)
(0 0 0 -1.93020287479 -1.04555199481e-11 -4.49043803069e-12 -0.0456890785633 -1.53433742276e-12 1.04550429693e-11)
(0 0 0 -2.25302574908 -1.02528461144e-11 -7.24237436073e-12 -0.0444476705988 -1.30417549321e-12 1.02524187936e-11)
(0 0 0 -2.65448884333 -9.95437630783e-12 -1.07002528817e-11 -0.0431440452963 -1.08922714549e-12 9.95543547661e-12)