/*--------------------------------*- C++ -*----------------------------------*\
| =========                 |                                                 |
| \\      /  F ield         | OpenFOAM: The Open Source CFD Toolbox           |
|  \\    /   O peration     | Version:  3.0.1                                 |
|   \\  /    A nd           | Web:      www.OpenFOAM.org                      |
|    \\/     M anipulation  |                                                 |
\*---------------------------------------------------------------------------*/
FoamFile
{
    version     2.0;
    format      ascii;
    class       surfaceScalarField;
    location    "50000";
    object      phi;
}
// * * * * * * * * * * * * * * * * * * * * * * * * * * * * * * * * * * * * * //

dimensions      [0 3 -1 0 0 0 0];

internalField   nonuniform List<scalar> 
4900
(
3.10283659924e-16
-3.10907390824e-16
5.99446368742e-16
-2.89237532036e-16
8.62946923124e-16
-2.6351498004e-16
1.09820139208e-15
-2.35311151229e-16
1.30415534103e-15
-2.06042731554e-16
1.48062808713e-15
-1.7679191672e-16
1.62879033317e-15
-1.4808789771e-16
1.74931467557e-15
-1.20806735743e-16
1.84435284557e-15
-9.4990639574e-17
1.91548021083e-15
-7.10556253604e-17
1.96461539931e-15
-4.90796018969e-17
1.99369814036e-15
-2.90803363598e-17
2.0047099508e-15
-1.10833415939e-17
1.9997027542e-15
5.00761136837e-18
1.98050085201e-15
1.92300300729e-17
1.94884294649e-15
3.16996492297e-17
1.90637095034e-15
4.25064818062e-17
1.85462487675e-15
5.17757390389e-17
1.79505028735e-15
5.96261513207e-17
1.72893655778e-15
6.61655681254e-17
1.6574730214e-15
7.15153928115e-17
1.58174722241e-15
7.57723070189e-17
1.50273268867e-15
7.90489956124e-17
1.42126788982e-15
8.14409777962e-17
1.33821353582e-15
8.30385238994e-17
1.2542765399e-15
8.39234026531e-17
1.17008761484e-15
8.41764793611e-17
1.08621513659e-15
8.38592004498e-17
1.00316111195e-15
8.30359863143e-17
9.21379950066e-16
8.17665727903e-17
8.41271902051e-16
8.00976914792e-17
7.63189306411e-16
7.80734888156e-17
6.87454303052e-16
7.5729211974e-17
6.14349375954e-16
7.30962060128e-17
5.44138144131e-16
7.02001989665e-17
4.77072147132e-16
6.70586593153e-17
4.13381567559e-16
6.36839727476e-17
3.53294159996e-16
6.00776577772e-17
2.97064312804e-16
5.62342014085e-17
2.44939237505e-16
5.21350996836e-17
1.97195912113e-16
4.77520364561e-17
1.54147521136e-16
4.3050320892e-17
1.16151172212e-16
3.80026194285e-17
8.3533298736e-17
3.26228341636e-17
5.65221464419e-17
2.70167117022e-17
3.51336517329e-17
2.13907353e-17
1.91654537211e-17
1.59713441502e-17
8.26106001024e-18
1.09059530245e-17
2.01024971545e-18
6.25039221325e-18
2.01005580966e-18
2.89038136799e-16
-5.99849987731e-16
5.58089751204e-16
-5.58389890885e-16
8.03286345311e-16
-5.08789039144e-16
1.02223066686e-15
-4.54349802544e-16
1.21388516411e-15
-3.97784132425e-16
1.3781794834e-15
-3.41207811822e-16
1.51590007687e-15
-2.85906037249e-16
1.62813200752e-15
-2.33049912956e-16
1.71638884034e-15
-1.83279571988e-16
1.78236701675e-15
-1.37091005849e-16
1.82792062146e-15
-9.46389498376e-17
1.85480200792e-15
-5.60409256802e-17
1.86490988563e-15
-2.12773461575e-17
1.86015681652e-15
9.79243815333e-18
1.84220286744e-15
3.72367256622e-17
1.81266251575e-15
6.12744393435e-17
1.77309322893e-15
8.21175777821e-17
1.72492225488e-15
9.99935796318e-17
1.66946254564e-15
1.15124439771e-16
1.60793086401e-15
1.2773549596e-16
1.54143608253e-15
1.38049795765e-16
1.47100021064e-15
1.46253517271e-16
1.39746438401e-15
1.52565614576e-16
1.32169061371e-15
1.57180965554e-16
1.24444040764e-15
1.6027084643e-16
1.16636064345e-15
1.61983755309e-16
1.08803808589e-15
1.62475867494e-16
1.010038093e-15
1.6186709784e-16
9.32835063616e-16
1.60284120982e-16
8.56802189925e-16
1.57836714219e-16
7.82284260079e-16
1.54615959534e-16
7.09625403856e-16
1.50707599835e-16
6.39152072222e-16
1.4618177101e-16
5.71142348197e-16
1.41099338577e-16
5.05823118559e-16
1.35508894666e-16
4.43448991035e-16
1.29444193231e-16
3.84195178245e-16
1.22926676962e-16
3.28329912503e-16
1.15961578282e-16
2.76037459685e-16
1.0853576934e-16
2.27546730095e-16
1.00615354401e-16
1.83165437946e-16
9.21468595877e-17
1.43156114097e-16
8.30628232627e-17
1.07828733514e-16
7.33112775086e-17
7.75343309362e-17
6.29222525157e-17
5.24468010436e-17
5.20998389266e-17
3.25924281463e-17
4.12441199782e-17
1.77733184494e-17
3.07905914044e-17
7.65756792348e-18
2.10222060977e-17
1.86213705666e-18
1.20457297797e-17
3.87186167115e-18
2.63363821543e-16
-8.6311645283e-16
5.08516773685e-16
-8.03500832801e-16
7.31904386108e-16
-7.32135208003e-16
9.31347901356e-16
-6.53795603386e-16
1.10586395858e-15
-5.72327559691e-16
1.25536225495e-15
-4.90752265913e-16
1.38062905421e-15
-4.11111042187e-16
1.48250431493e-15
-3.35029655895e-16
1.5625587341e-15
-2.6340520805e-16
1.62234452907e-15
-1.96891466183e-16
1.66352466087e-15
-1.35783424479e-16
1.68776220269e-15
-8.02497708743e-17
1.69677066245e-15
-3.02510166037e-17
1.69213737296e-15
1.43776119741e-17
1.67551182849e-15
5.38201542417e-17
1.64846036893e-15
8.83756693414e-17
1.61231459588e-15
1.18307452653e-16
1.56837745389e-15
1.43977003496e-16
1.51786017238e-15
1.65690083761e-16
1.4618353012e-15
1.83784979995e-16
1.40117226197e-15
1.98563329295e-16
1.33707140415e-15
2.10369417657e-16
1.27026605777e-15
2.19449498974e-16
1.20140906769e-15
2.26065016147e-16
1.13117827978e-15
2.30491631237e-16
1.06024469942e-15
2.32952228981e-16
9.8899536004e-16
2.33646401297e-16
9.18064324313e-16
2.32772756078e-16
8.47920469717e-16
2.30506434718e-16
7.78803864733e-16
2.26987135832e-16
7.11094134959e-16
2.22361424227e-16
6.45064976293e-16
2.16742341225e-16
5.81001116397e-16
2.1023655925e-16
5.19181284327e-16
2.02930875585e-16
4.59772824914e-16
1.94890818102e-16
4.03057075228e-16
1.86169891893e-16
3.49180568645e-16
1.76794753552e-16
2.98383178158e-16
1.66775435053e-16
2.50832714005e-16
1.5609090624e-16
2.06741633301e-16
1.4469316454e-16
1.66388639692e-16
1.32505727251e-16
1.30026120377e-16
1.19431576742e-16
9.79566267444e-17
1.05397736012e-16
7.04252034787e-17
9.04487272768e-17
4.76436191275e-17
7.4883635086e-17
2.96136520361e-17
5.92771416543e-17
1.61528783267e-17
4.42529557061e-17
6.96143212637e-18
3.02147115272e-17
1.69344779301e-18
1.731433494e-17
5.5662679734e-18
2.35257801564e-16
-1.09847864728e-15
4.54199694248e-16
-1.02245707576e-15
6.53632325624e-16
-9.31579483944e-16
8.31620782799e-16
-8.31782321171e-16
9.87247840413e-16
-7.28020181644e-16
1.12049546529e-15
-6.24054306667e-16
1.23192817078e-15
-5.22636377796e-16
1.32249391945e-15
-4.25672108855e-16
1.39348881126e-15
-3.34442801474e-16
1.44636203483e-15
-2.49729569157e-16
1.48259040689e-15
-1.71962501511e-16
1.50367920445e-15
-1.01311067043e-16
1.51122270985e-15
-3.77495036441e-17
1.50665533696e-15
1.89050188756e-17
1.49145870143e-15
6.89796460909e-17
1.46695600916e-15
1.12830314873e-16
1.43447127003e-15
1.50828169112e-16
1.3950888005e-15
1.83391988648e-16
1.34989168792e-15
2.10920808985e-16
1.29986183221e-15
2.33859578571e-16
1.24588779521e-15
2.52582482659e-16
1.18872759345e-15
2.67514255507e-16
1.12915247853e-15
2.79000737951e-16
1.06786148572e-15
2.87377268215e-16
1.00540055687e-15
2.92976462613e-16
9.42265245217e-16
2.96071204194e-16
8.78954001026e-16
2.96944108047e-16
8.1592353154e-16
2.9582394931e-16
7.53500605494e-16
2.92932838464e-16
6.92048241141e-16
2.8845575193e-16
6.31808415416e-16
2.82576190832e-16
5.73088944314e-16
2.75436599557e-16
5.16163445411e-16
2.67174309273e-16
4.61191300141e-16
2.57891255417e-16
4.08416216877e-16
2.47677867944e-16
3.5797932744e-16
2.36595548471e-16
3.10113032151e-16
2.24682455566e-16
2.64952092866e-16
2.11945661e-16
2.22674272096e-16
1.983602382e-16
1.83510957139e-16
1.83865425568e-16
1.47653773123e-16
1.68361962842e-16
1.15357537198e-16
1.51729952215e-16
8.68709104928e-17
1.33878872329e-16
6.24560530877e-17
1.1487006126e-16
4.2249352653e-17
9.50879545825e-17
2.62596661726e-17
7.5264283553e-17
1.43212884959e-17
5.61869214025e-17
6.1714770466e-18
3.83633438133e-17
1.50089674891e-18
2.19839731415e-17
7.06703657033e-18
2.05964105944e-16
-1.30445483367e-15
3.97612167656e-16
-1.21408170412e-15
5.72216410709e-16
-1.10610276424e-15
7.27931396088e-16
-9.87397204847e-16
8.63923824306e-16
-8.64009819173e-16
9.80173289669e-16
-7.4034769374e-16
1.07719023692e-15
-6.19706571817e-16
1.15586373632e-15
-5.04381976849e-16
1.21733439031e-15
-3.95914278395e-16
1.26287158487e-15
-2.9524352838e-16
1.29380222642e-15
-2.02891311151e-16
1.31150807891e-15
-1.19027062053e-16
1.3173783744e-15
-4.36132693635e-17
1.31278167715e-15
2.35427363461e-17
1.29887508683e-15
8.28423588728e-17
1.2769966665e-15
1.3476113948e-16
1.24818170734e-15
1.79693261135e-16
1.21342672116e-15
2.18168259224e-16
1.17367206916e-15
2.50687652611e-16
1.1297996365e-15
2.7776326398e-16
1.08260157417e-15
2.99855513677e-16
1.03269498834e-15
3.17444193368e-16
9.80694048089e-16
3.30950814783e-16
9.27329477734e-16
3.40802851964e-16
8.72918084267e-16
3.473641313e-16
8.17980706999e-16
3.50977053476e-16
7.62885299956e-16
3.51967015206e-16
7.08076355765e-16
3.50608708563e-16
6.53822769571e-16
3.47159880689e-16
6.00452521395e-16
3.41844856469e-16
5.48134478423e-16
3.3486958829e-16
4.97175997705e-16
3.26408629322e-16
4.47725810024e-16
3.16615100031e-16
4.00016853678e-16
3.05617370592e-16
3.54191066177e-16
2.93514479527e-16
3.10415113151e-16
2.80380396276e-16
2.68848079762e-16
2.66258294349e-16
2.29633952336e-16
2.51156324819e-16
1.92937700138e-16
2.35045423418e-16
1.58944941172e-16
2.17852243402e-16
1.27846859915e-16
1.99460395029e-16
9.98534287986e-17
1.79728164823e-16
7.51641399278e-17
1.58551254409e-16
5.40170730862e-17
1.36010639447e-16
3.65392241815e-17
1.12568819081e-16
2.27127673981e-17
8.90932951789e-17
1.23883197883e-17
6.65108024402e-17
5.342918597e-18
4.54148202007e-17
1.30109822757e-18
2.60269545342e-17
8.36788166721e-18
1.76811292175e-16
-1.48079125055e-15
3.41019133912e-16
-1.37839294989e-15
4.90738193731e-16
-1.25552714326e-15
6.24026835589e-16
-1.12060008348e-15
7.40305958142e-16
-9.80248804259e-16
8.39516536547e-16
-8.39566147835e-16
9.22080165573e-16
-7.02297605244e-16
9.8879047479e-16
-5.71101779005e-16
1.04064703433e-15
-4.47747398903e-16
1.0787825498e-15
-3.33329630913e-16
1.10432989628e-15
-2.28451034114e-16
1.11844891092e-15
-1.3329899956e-16
1.12235254609e-15
-4.77852242202e-17
1.11754132527e-15
2.83810750405e-17
1.10497894404e-15
9.55600458969e-17
1.08548695563e-15
1.54211015056e-16
1.06019414574e-15
2.05005691679e-16
1.02996398406e-15
2.48423279483e-16
9.95593663352e-16
2.85091302128e-16
9.57743901742e-16
3.15555691949e-16
9.17180174225e-16
3.40426392273e-16
8.74383233528e-16
3.60164168704e-16
8.30021896727e-16
3.75330988861e-16
7.84498548858e-16
3.86344654792e-16
7.38180359726e-16
3.93656580361e-16
6.91569955783e-16
3.97655571165e-16
6.44833226707e-16
3.98688786507e-16
5.9833296888e-16
3.97084752589e-16
5.52342780249e-16
3.93128087601e-16
5.0714383493e-16
3.87077079784e-16
4.62826905163e-16
3.79146694647e-16
4.19682099336e-16
3.69548447997e-16
3.77860664747e-16
3.58447200527e-16
3.37501386807e-16
3.45984622385e-16
2.98752643958e-16
3.32273267527e-16
2.61745641307e-16
3.17394321009e-16
2.26606116222e-16
3.01396736402e-16
1.93469018293e-16
2.84286903696e-16
1.6247210007e-16
2.66031280724e-16
1.33785174861e-16
2.46545585348e-16
1.07552120043e-16
2.25697842847e-16
8.39528562892e-17
2.03329425297e-16
6.31711605374e-17
1.79327838888e-16
4.53973466092e-17
1.53793469731e-16
3.06940937931e-17
1.27258722765e-16
1.90776398784e-17
1.00708084687e-16
1.0406943577e-17
7.51799142979e-17
4.48553099803e-18
5.1335397171e-17
1.0903655931e-18
2.9420379603e-17
9.45814460179e-18
1.4805444379e-16
-1.62894694712e-15
2.85743577945e-16
-1.5160046369e-15
4.11138836692e-16
-1.38060058305e-15
5.22612346016e-16
-1.23197602503e-15
6.19677551056e-16
-1.07724755405e-15
7.02265110781e-16
-9.2212679485e-16
7.70717819769e-16
-7.70751008807e-16
8.25714865472e-16
-6.26095861862e-16
8.68117831161e-16
-4.901297602e-16
8.98903778956e-16
-3.64086305299e-16
9.19097039308e-16
-2.48624810332e-16
9.29741583816e-16
-1.43960921683e-16
9.31917403553e-16
-4.99680165783e-17
9.26690871007e-16
3.36320753692e-17
9.15004263719e-16
1.07292555589e-16
8.97823011969e-16
1.71548386026e-16
8.75807308418e-16
2.27050545256e-16
8.49804311343e-16
2.74445124569e-16
8.20501484083e-16
3.14413226591e-16
7.88505995627e-16
3.47572897637e-16
7.54328277327e-16
3.74580478073e-16
7.18504193009e-16
3.95995269635e-16
6.8142219406e-16
4.12384868659e-16
6.43521525463e-16
4.24251412861e-16
6.05114849568e-16
4.32085215287e-16
5.66493727503e-16
4.36300476294e-16
5.27868864028e-16
4.37290417424e-16
4.89556493503e-16
4.35413020115e-16
4.51644884986e-16
4.30967660992e-16
4.14403196512e-16
4.24254585792e-16
3.78031475576e-16
4.15508608034e-16
3.42625736808e-16
4.04941536805e-16
3.08320902453e-16
3.92741261289e-16
2.75241023985e-16
3.79057807398e-16
2.43495665353e-16
3.64011836936e-16
2.13214753864e-16
3.47688123337e-16
1.84458011991e-16
3.30136471923e-16
1.57366236988e-16
3.11366684058e-16
1.32056124599e-16
2.91339970445e-16
1.08646235088e-16
2.69959940578e-16
8.72658022506e-17
2.47083568452e-16
6.80512334558e-17
2.22538764518e-16
5.11616794513e-17
1.96210724078e-16
3.67348512085e-17
1.68219059349e-16
2.48437272319e-17
1.3915935193e-16
1.54416206413e-17
1.10109270016e-16
8.42502287813e-18
8.21949660224e-17
3.63308490675e-18
5.61270658603e-17
8.84396576871e-19
3.2168374907e-17
1.0342556443e-17
1.20800245297e-16
-1.74945123292e-15
2.32975992884e-16
-1.62826664931e-15
3.34997987097e-16
-1.48255793393e-15
4.25652932101e-16
-1.32254733046e-15
5.04365421799e-16
-1.15591331715e-15
5.71081135554e-16
-9.88836081178e-16
6.26072348861e-16
-8.25747632333e-16
6.69904521199e-16
-6.69927340119e-16
7.03291435872e-16
-5.23503669897e-16
7.27064540116e-16
-3.87846458055e-16
7.421318724e-16
-2.63643910746e-16
7.49376115723e-16
-1.51157140392e-16
7.49693908516e-16
-5.02671531899e-17
7.44002338477e-16
3.93389341546e-17
7.33148798163e-16
1.1817794813e-16
7.17890751473e-16
1.86835454423e-16
6.98898102001e-16
2.46067342882e-16
6.76814926197e-16
2.9654246357e-16
6.52228928977e-16
3.39018139646e-16
6.2563450573e-16
3.74184387155e-16
5.97421575725e-16
4.02721014094e-16
5.68026203551e-16
4.25310774649e-16
5.37859255002e-16
4.42523822667e-16
5.07218164557e-16
4.54929174525e-16
4.76252976767e-16
4.63025489992e-16
4.45287524395e-16
4.67290078588e-16
4.14421849846e-16
4.68132884814e-16
3.83871822991e-16
4.65938272994e-16
3.53840135169e-16
4.61041762459e-16
3.24347432014e-16
4.53727405542e-16
2.95553702551e-16
4.44269855289e-16
2.6762009066e-16
4.32886388589e-16
2.40602477917e-16
4.19772352349e-16
2.14566522708e-16
4.05083647378e-16
1.89621877314e-16
3.88951377388e-16
1.65838366982e-16
3.71460840761e-16
1.43322388118e-16
3.526655567e-16
1.22135831708e-16
3.32567226531e-16
1.02330664935e-16
3.11122391056e-16
8.40563910638e-17
2.88231231388e-16
6.7394240677e-17
2.63739034083e-16
5.25001924062e-17
2.37466323587e-16
3.94116337975e-17
2.09293663891e-16
2.82737962074e-17
1.7936628154e-16
1.90996030164e-17
1.48332295537e-16
1.1867951036e-17
1.17344421774e-16
6.47399162202e-18
8.75896028958e-17
2.79307376285e-18
5.98109759157e-17
6.79854391219e-19
3.42809921689e-17
1.10225905366e-17
9.49809578168e-17
-1.84447364199e-15
1.83247412883e-16
-1.71655497968e-15
2.63378932747e-16
-1.5626418456e-15
3.34419026984e-16
-1.39356513807e-15
3.95895341042e-16
-1.21738115081e-15
4.47731532239e-16
-1.0406819242e-15
4.90110367392e-16
-8.68150545095e-16
5.23477703347e-16
-7.03324931038e-16
5.48427740579e-16
-5.48458897414e-16
5.65653596964e-16
-4.05056435849e-16
5.75906726969e-16
-2.7385224099e-16
5.79919066329e-16
-1.55140628701e-16
5.78444773382e-16
-4.88063265924e-17
5.72262420208e-16
4.55112467113e-17
5.62106290557e-16
1.28358551714e-16
5.48607754625e-16
2.00369818122e-16
5.32301795417e-16
2.62385814051e-16
5.1375760036e-16
3.15097223194e-16
4.93456001577e-16
3.59339174884e-16
4.71802298721e-16
3.95861912453e-16
4.49148985897e-16
4.25400647759e-16
4.2577191898e-16
4.48679346879e-16
4.01916193152e-16
4.66304593704e-16
3.77935205045e-16
4.78926212738e-16
3.53935037528e-16
4.87052151158e-16
3.30069162884e-16
4.91177600759e-16
3.06469764406e-16
4.91752801834e-16
2.8324720788e-16
4.89177118847e-16
2.60472105604e-16
4.83798481826e-16
2.38276189394e-16
4.75928940736e-16
2.16679616031e-16
4.65837745807e-16
1.95805315382e-16
4.53762252738e-16
1.75666630747e-16
4.3989508922e-16
1.56358932135e-16
4.24403617665e-16
1.3787742629e-16
4.07411149187e-16
1.20335586389e-16
3.8901120402e-16
1.03740661611e-16
3.69248368253e-16
8.81870738778e-17
3.48129845099e-16
7.37042231732e-17
3.25603252884e-16
6.03761386986e-17
3.01561436937e-16
4.82830274859e-17
2.75843660827e-16
3.74804085757e-17
2.48264421295e-16
2.80704415313e-17
2.1871087167e-16
2.00878412879e-17
1.87347956177e-16
1.35548517111e-17
1.54870921957e-16
8.41272533877e-18
1.22484878391e-16
4.58764999221e-18
9.14153090797e-17
1.97640459353e-18
6.24207176159e-17
4.81230590311e-19
3.57766670856e-17
1.1503780342e-17
7.10457036258e-17
-1.91561744275e-15
1.37078872477e-16
-1.78253267378e-15
1.968716987e-16
-1.62244834082e-15
2.4971314271e-16
-1.44643198571e-15
2.95234157568e-16
-1.26291435565e-15
3.33323248449e-16
-1.07878994815e-15
3.64073188447e-16
-8.98935168722e-16
3.87817235942e-16
-7.27106052954e-16
4.05021654092e-16
-5.65683553781e-16
4.16240848512e-16
-4.16274249058e-16
4.22084941864e-16
-2.79661873508e-16
4.23147272796e-16
-1.56179323145e-16
4.20039489256e-16
-4.57118439712e-17
4.13352751895e-16
5.21177613571e-17
4.03738699425e-16
1.37896869472e-16
3.91844974627e-16
2.12365119435e-16
3.77948869542e-16
2.76260884325e-16
3.62599060982e-16
3.3046504218e-16
3.46114741698e-16
3.75789542822e-16
3.28870216387e-16
4.13072251991e-16
3.11171798778e-16
4.43102120708e-16
2.93161551007e-16
4.66612296558e-16
2.75171845703e-16
4.8431545966e-16
2.57286644036e-16
4.96825936767e-16
2.39542506814e-16
5.04716936657e-16
2.22191878056e-16
5.08534558204e-16
2.05250417068e-16
5.08718182367e-16
1.88748853639e-16
5.05688273504e-16
1.72749634569e-16
4.99807942946e-16
1.57295998553e-16
4.91403558278e-16
1.42401470223e-16
4.80743435538e-16
1.28099913265e-16
4.68074259619e-16
1.1441561518e-16
4.53592429703e-16
1.01368739402e-16
4.37461736727e-16
8.89833268286e-17
4.19808091579e-16
7.72834003943e-17
4.00720856902e-16
6.6284169532e-17
3.80243170699e-16
5.60373986224e-17
3.58381306389e-16
4.65332968153e-17
3.35075611823e-16
3.78725398856e-17
3.10217498845e-16
3.00845610321e-17
2.83638308614e-16
2.31966741328e-17
2.55150524335e-16
1.72618826811e-17
2.24648937988e-16
1.22870727424e-17
1.92321747996e-16
8.24915701988e-18
1.58901972294e-16
5.1063535204e-18
1.25629340768e-16
2.77770319966e-18
9.37435736682e-17
1.19384868598e-18
6.40036119708e-17
2.90123466281e-19
3.6681374396e-17
1.17938845647e-17
4.90602221262e-17
-1.96477270279e-15
9.4639784933e-17
-1.82808445721e-15
1.35782041888e-16
-1.66362135065e-15
1.71965558439e-16
-1.48264239293e-15
2.02890684522e-16
-1.29385792223e-15
2.28429212371e-16
-1.10435489826e-15
2.4859719687e-16
-9.19137471653e-16
2.63621882451e-16
-7.42158526536e-16
2.73826114642e-16
-5.75922199759e-16
2.79629170982e-16
-4.22101925606e-16
2.81504928532e-16
-2.8153579442e-16
2.79912900054e-16
-1.54596946481e-16
2.75336315973e-16
-4.11572290521e-17
2.68272231821e-16
5.91463739014e-17
2.5924006037e-16
1.46943470506e-16
2.48723775003e-16
2.22996400854e-16
2.36974291536e-16
2.88033158587e-16
2.24425730319e-16
3.4302610016e-16
2.11393626743e-16
3.88837625142e-16
1.98129504777e-16
4.26358145899e-16
1.84847623498e-16
4.5640856115e-16
1.71682838919e-16
4.79765356405e-16
1.58795725215e-16
4.97175011775e-16
1.46326388737e-16
5.09298807005e-16
1.34323108334e-16
5.16739797707e-16
1.22828751836e-16
5.20044002962e-16
1.11871007224e-16
5.19693795739e-16
1.01457931329e-16
5.16114721685e-16
9.15906414135e-17
5.09685245205e-16
8.22652164708e-17
5.00737781848e-16
7.34733239596e-17
4.89544541511e-16
6.52070669442e-17
4.76353374511e-16
5.74314389807e-17
4.61359206584e-16
5.01531931609e-17
4.44727895893e-16
4.33443880248e-17
4.26582451271e-16
3.70178882536e-17
4.07008950017e-16
3.1234285359e-17
3.86049730382e-16
2.59261841629e-17
3.63695938489e-16
2.11116481754e-17
3.39890223142e-16
1.68108142987e-17
3.14516885228e-16
1.30372287294e-17
2.87407607867e-16
9.80382276272e-18
2.58377393976e-16
7.12026941652e-18
2.27331231957e-16
4.96450119394e-18
1.94480403095e-16
3.27619273613e-18
1.60585724542e-16
2.00171409816e-18
1.26903387541e-16
1.07854012464e-18
9.46672712961e-17
4.61171464333e-19
6.46225802106e-17
1.11424863328e-19
3.70314789841e-17
1.19054274964e-17
2.90634642268e-17
-1.99383032268e-15
5.607465638e-17
-1.85486338865e-15
8.02628446951e-17
-1.68783099418e-15
1.01317865073e-16
-1.50374013158e-15
1.1903180007e-16
-1.31159120787e-15
1.33278437658e-16
-1.11854197307e-15
1.43934074017e-16
-9.29810669157e-16
1.51131306383e-16
-7.49404349698e-16
1.55105419245e-16
-5.79937134122e-16
1.56139034613e-16
-4.23145382663e-16
1.54550000794e-16
-2.79937185127e-16
1.50675902815e-16
-1.50720882607e-16
1.44862648744e-16
-3.53583044807e-17
1.37539242442e-16
6.64949820104e-17
1.29075863095e-16
1.5547740309e-16
1.19753294688e-16
2.32292371922e-16
1.09953932134e-16
2.97853687809e-16
9.99350809564e-17
3.53067947849e-16
8.99263057152e-17
3.98863263782e-16
8.01416928727e-17
4.36167516835e-16
7.07429361518e-17
4.65833952442e-16
6.18343358426e-17
4.88687704611e-16
5.35209678668e-17
5.05498332085e-16
4.58763591702e-17
5.16970305627e-16
3.88638182272e-17
5.23726508549e-16
3.25567229221e-17
5.26352614869e-16
2.69025863498e-17
5.25332024919e-16
2.19029735287e-17
5.21111401511e-16
1.75097124166e-17
5.14077075212e-16
1.36625085275e-17
5.04567426952e-16
1.03402693721e-17
4.92861605155e-16
7.49490129775e-18
4.79203532788e-16
5.07948619235e-18
4.63786063019e-16
3.05483616726e-18
4.46771454136e-16
1.37525524976e-18
4.28275184528e-16
1.03757783596e-20
4.08380030118e-16
-1.05736554213e-18
3.87123611951e-16
-1.85106309006e-18
3.64495031148e-16
-2.38758462658e-18
3.40430765783e-16
-2.68266818651e-18
3.14812628277e-16
-2.75457849387e-18
2.87472857354e-16
-2.61808421792e-18
2.58231894367e-16
-2.29318225257e-18
2.27008294608e-16
-1.84534076898e-18
1.94035415227e-16
-1.35226938463e-18
1.60095066165e-16
-8.89545867259e-19
1.2644154667e-16
-5.0729087792e-19
9.42843149332e-17
-2.26524463485e-19
6.43422500134e-17
-5.75083218243e-20
3.68619575563e-17
1.18479120714e-17
1.10861384097e-17
-2.00482059544e-15
2.13106743779e-17
-1.8649749784e-15
3.02616210983e-17
-1.69680707314e-15
3.77377645575e-17
-1.51126932618e-15
4.36102550331e-17
-1.31749775729e-15
4.77825828456e-17
-1.1225027857e-15
4.99681787927e-17
-9.32018319996e-16
5.02641749175e-17
-7.49750230163e-16
4.87767097758e-17
-5.78497855467e-16
4.56527374208e-17
-4.20050380179e-16
4.1087018147e-17
-2.75354596125e-16
3.53590176877e-17
-1.4484801738e-16
2.85866655177e-17
-2.85765544943e-17
2.1108345928e-17
7.39700137453e-17
1.3152483836e-17
1.63358806699e-16
5.04567511892e-18
2.40380664706e-16
-3.01264810854e-18
3.05880338955e-16
-1.07752773709e-17
3.60840678714e-16
-1.80644729822e-17
4.06198639646e-16
-2.47794886208e-17
4.42896148957e-16
-3.07879225135e-17
4.71844654122e-16
-3.59977261047e-17
4.93900088433e-16
-4.03585827574e-17
5.0985953286e-16
-4.38352785041e-17
5.20458220447e-16
-4.6440823131e-17
5.26349535853e-16
-4.82471494376e-17
5.28123906138e-16
-4.92557482613e-17
5.26311426603e-16
-4.95169584951e-17
5.21362036214e-16
-4.90745267795e-17
5.13669952592e-16
-4.80652061529e-17
5.03563923315e-16
-4.6510460052e-17
4.91346446785e-16
-4.45501859921e-17
4.77244894278e-16
-4.22093416938e-17
4.61458700092e-16
-3.95879206619e-17
4.44137925123e-16
-3.67180670285e-17
4.25400372824e-16
-3.36516715609e-17
4.05319729606e-16
-3.04400754593e-17
3.83927440276e-16
-2.7159062075e-17
3.61208216879e-16
-2.3822909989e-17
3.37098044714e-16
-2.04762362604e-17
3.11473945687e-16
-1.71670390861e-17
2.84169987948e-16
-1.3944545267e-17
2.55015786504e-16
-1.08799096028e-17
2.23945246336e-16
-8.05866085684e-18
1.91214820185e-16
-5.58431383805e-18
1.57618234747e-16
-3.53772293308e-18
1.2439267664e-16
-1.95771012783e-18
9.27058544369e-17
-8.54218359498e-19
6.32388028469e-17
-2.10622492678e-19
3.62175836937e-17
1.16372144951e-17
-4.99590945853e-18
-1.99984921237e-15
-9.7552620476e-18
-1.860249563e-15
-1.43751065819e-17
-1.69222519211e-15
-1.89499838775e-17
-1.50673280582e-15
-2.35570765117e-17
-1.31284309906e-15
-2.83674313672e-17
-1.11764113786e-15
-3.3617568219e-17
-9.26803631645e-16
-3.93347810214e-17
-7.4408024368e-16
-4.5528725856e-17
-5.72346377632e-16
-5.21616597948e-17
-4.13399793509e-16
-5.9184947785e-17
-2.68310307988e-16
-6.65028175325e-17
-1.37528348696e-16
-7.3969908893e-17
-2.109358337e-17
-8.14287012246e-17
8.14311289764e-17
-8.87279055082e-17
1.70637828725e-16
-9.5709010494e-17
2.47276491871e-16
-1.02117652478e-16
3.12272053964e-16
-1.07835880998e-16
3.66570839496e-16
-1.12749192819e-16
4.11136752632e-16
-1.16766934242e-16
4.46923413115e-16
-1.19806620338e-16
4.74881531158e-16
-1.21815580243e-16
4.95894932587e-16
-1.22767222086e-16
5.10792795479e-16
-1.2265919961e-16
5.20334762702e-16
-1.21516972643e-16
5.25201167087e-16
-1.19409886204e-16
5.26005251228e-16
-1.16403749663e-16
5.23284650959e-16
-1.12567743542e-16
5.17512848939e-16
-1.07997953355e-16
5.09092663041e-16
-1.02782779664e-16
4.98361502227e-16
-9.70355113176e-17
4.85611116788e-16
-9.08766950302e-17
4.71076320694e-16
-8.43810257951e-17
4.54953584742e-16
-7.76441156407e-17
4.37391455503e-16
-7.07492073284e-17
4.184989341e-16
-6.37790745446e-17
3.98342825145e-16
-5.67928576657e-17
3.76947740982e-16
-4.98717540625e-17
3.54293351014e-16
-4.30926846095e-17
3.30312794387e-16
-3.65033727893e-17
3.0488500182e-16
-3.01762510273e-17
2.77847232733e-16
-2.42053210891e-17
2.49039684777e-16
-1.86711021653e-17
2.18416557484e-16
-1.37067604531e-17
1.86253423554e-16
-9.43429495477e-18
1.53349001555e-16
-5.95102989764e-18
1.20907940259e-16
-3.28623892426e-18
9.00420926384e-17
-1.43296149535e-18
6.1385075053e-17
-3.53373180798e-19
3.51377047832e-17
1.12840095306e-17
-1.92097498341e-17
-1.98058992924e-15
-3.71949128473e-17
-1.84229632188e-15
-5.38172564361e-17
-1.67565686802e-15
-6.90214542363e-17
-1.4915760101e-15
-8.28711794798e-17
-1.29894265041e-15
-9.55614114067e-17
-1.10501479141e-15
-1.07260612475e-16
-9.15050796758e-16
-1.18165360215e-16
-7.33212807252e-16
-1.28366043994e-16
-5.62181906007e-16
-1.37931343263e-16
-4.03818589588e-16
-1.46953626745e-16
-2.59298226864e-16
-1.55474904265e-16
-1.29091375584e-16
-1.63367619932e-16
-1.31670244471e-17
-1.70646085383e-16
8.8731335155e-17
-1.77238790357e-16
1.77229133432e-16
-1.83014377141e-16
2.53083731495e-16
-1.87877270936e-16
3.17160098387e-16
-1.91738519209e-16
3.70442840525e-16
-1.94528402065e-16
4.13928037991e-16
-1.96179518442e-16
4.4856831087e-16
-1.9664166878e-16
4.75328626496e-16
-1.95885120763e-16
4.95119831979e-16
-1.93907479211e-16
5.08803159547e-16
-1.90737727684e-16
5.17152452282e-16
-1.86399471758e-16
5.20875875523e-16
-1.81001796433e-16
5.20594871943e-16
-1.74587002371e-16
5.16882100621e-16
-1.67289601657e-16
5.10203318091e-16
-1.59195044682e-16
5.0099062954e-16
-1.50428463761e-16
4.89586332702e-16
-1.41094920762e-16
4.762888932e-16
-1.31338773169e-16
4.61328610755e-16
-1.21266514281e-16
4.44891256645e-16
-1.10995329687e-16
4.27123380139e-16
-1.00632024658e-16
4.08130016474e-16
-9.02718632578e-17
3.8797680417e-16
-7.99978881431e-17
3.66679037543e-16
-6.98983816741e-17
3.44214083048e-16
-6.00888029588e-17
3.20509673887e-16
-5.0653128154e-17
2.95445713253e-16
-4.16760390551e-17
2.68868680046e-16
-3.32685223438e-17
2.40632301579e-16
-2.55656025378e-17
2.10710422126e-16
-1.87077693979e-17
1.79398938087e-16
-1.28521226849e-17
1.47491942555e-16
-8.09407374495e-18
1.16149712575e-16
-4.46614253479e-18
8.64145607075e-17
-1.94616245978e-18
5.8864439861e-17
-4.79108839464e-19
3.36709879113e-17
1.08050273071e-17
-3.16837122564e-17
-1.94893245207e-15
-6.12465664457e-17
-1.81275917053e-15
-8.83717818719e-17
-1.64857251894e-15
-1.12852889739e-16
-1.46704280134e-15
-1.34771980861e-16
-1.27706971063e-15
-1.5422747595e-16
-1.085522177e-15
-1.71531587507e-16
-8.97820539034e-16
-1.86834805388e-16
-7.17935119936e-16
-2.00379673985e-16
-5.48647678148e-16
-2.12382891535e-16
-3.91885484656e-16
-2.22976817331e-16
-2.48756535422e-16
-2.32287132055e-16
-1.19796422345e-16
-2.40380023369e-16
-5.10091645845e-18
-2.47290372276e-16
9.56744355318e-17
-2.5309056276e-16
1.82995505891e-16
-2.577062077e-16
2.57698507544e-16
-2.61083480323e-16
3.20570657817e-16
-2.63175439337e-16
3.72615989408e-16
-2.64029599731e-16
4.1478770207e-16
-2.6357184314e-16
4.48101524726e-16
-2.61780698017e-16
4.73520368256e-16
-2.58625372476e-16
4.91977370168e-16
-2.54156794103e-16
5.04325100421e-16
-2.48399776312e-16
5.1138449607e-16
-2.41405109818e-16
5.13869580099e-16
-2.33241037537e-16
5.1244279764e-16
-2.24033983365e-16
5.07659063068e-16
-2.1382945849e-16
5.0003340745e-16
-2.0278269185e-16
4.89983243488e-16
-1.91024640768e-16
4.77864331892e-16
-1.78701654702e-16
4.63977822289e-16
-1.65973055281e-16
4.48563300794e-16
-1.52926591429e-16
4.31813880902e-16
-1.39677633703e-16
4.13867854e-16
-1.26350969736e-16
3.94821352418e-16
-1.13110586565e-16
3.74727633621e-16
-1.00033563952e-16
3.53605193055e-16
-8.72271921007e-17
3.31425004008e-16
-7.48411576308e-17
3.0811081876e-16
-6.29487488192e-17
2.83550444574e-16
-5.16727454332e-17
2.57597431842e-16
-4.11598941199e-17
2.30120905997e-16
-3.15697656344e-17
2.01117207547e-16
-2.30775854064e-17
1.70900982288e-16
-1.5843832713e-17
1.40254974319e-16
-9.97486502244e-18
1.10281939047e-16
-5.50613533908e-18
8.19444460419e-17
-2.39959506491e-18
5.57585824966e-17
-5.91775356104e-19
3.18628763031e-17
1.02137765613e-17
-4.25010612365e-17
-1.90645014097e-15
-8.20900064859e-17
-1.77320572367e-15
-1.18299180448e-16
-1.61239651716e-15
-1.50850065229e-16
-1.43453400749e-15
-1.79688715576e-16
-1.24817705593e-15
-2.0501054938e-16
-1.06022632848e-15
-2.27046779105e-16
-8.75830221275e-16
-2.46066247058e-16
-6.98957245583e-16
-2.62385619598e-16
-5.32339424485e-16
-2.76287710554e-16
-3.78010456313e-16
-2.88023947901e-16