/*--------------------------------*- C++ -*----------------------------------*\
| =========                 |                                                 |
| \\      /  F ield         | OpenFOAM: The Open Source CFD Toolbox           |
|  \\    /   O peration     | Version:  3.0.1                                 |
|   \\  /    A nd           | Web:      www.OpenFOAM.org                      |
|    \\/     M anipulation  |                                                 |
\*---------------------------------------------------------------------------*/
FoamFile
{
    version     2.0;
    format      ascii;
    class       volSymmTensorField;
    location    "50000";
    object      R;
}
// * * * * * * * * * * * * * * * * * * * * * * * * * * * * * * * * * * * * * //

dimensions      [0 2 -2 0 0 0 0];

internalField   nonuniform List<symmTensor> 
2500
(
(0.000678562683333 2.64393463022e-05 2.64384811204e-05 0.000678562683258 1.69535808041e-17 0.000678562683408)
(0.000692605997133 7.80330791914e-05 2.65854551983e-05 0.00069260599706 4.62944519769e-17 0.000692605997207)
(0.00071811637484 0.000127023342932 2.68367434738e-05 0.000718116374769 4.48607510336e-17 0.000718116374911)
(0.000752451682767 0.000173397385408 2.71409607049e-05 0.0007524516827 5.25895845734e-17 0.000752451682833)
(0.000793210274753 0.000217203486984 2.74470077843e-05 0.000793210274692 9.74855119879e-17 0.000793210274815)
(0.000838389394907 0.000258557994419 2.77091576185e-05 0.000838389394851 1.0365754288e-16 0.000838389394962)
(0.00088642311128 0.000297635189385 2.78892995124e-05 0.000886423111231 1.08767923818e-16 0.000886423111329)
(0.000936148562087 0.000334648426107 2.79576131218e-05 0.000936148562045 1.1500905459e-16 0.000936148562128)
(0.000986740737773 0.000369830126484 2.78925277731e-05 0.000986740737739 1.03137120826e-16 0.000986740737807)
(0.00103764024859 0.000403414353672 2.76803755964e-05 0.00103764024856 1.02739160064e-16 0.00103764024861)
(0.00108848605938 0.000435623052189 2.73148744033e-05 0.00108848605936 7.42239638942e-17 0.0010884860594)
(0.00113905776305 0.000466655918202 2.679646016e-05 0.00113905776304 3.81148422013e-17 0.00113905776306)
(0.00118922826815 0.000496683521359 2.61314643333e-05 0.00118922826814 -2.40824984902e-18 0.00118922826815)
(0.00123892620457 0.000525843234488 2.5331146418e-05 0.00123892620458 -5.97342595593e-17 0.00123892620457)
(0.00128810682187 0.00055423751944 2.44106163245e-05 0.00128810682187 -1.21279576476e-16 0.00128810682186)
(0.00133673007076 0.000581934112457 2.33877027251e-05 0.00133673007077 -1.80298205161e-16 0.00133673007075)
(0.00138474463088 0.000608967647096 2.22818330555e-05 0.0013847446309 -2.35387031304e-16 0.00138474463086)
(0.00143207675163 0.000635342255439 2.11129898543e-05 0.00143207675165 -2.92340990854e-16 0.0014320767516)
(0.00147862286768 0.0006610347063 1.9900797327e-05 0.00147862286771 -3.41872464822e-16 0.00147862286765)
(0.00152424502645 0.00068599767556 1.8663776714e-05 0.00152424502648 -3.82632523827e-16 0.00152424502642)
(0.00156876822727 0.000710162792532 1.7418788347e-05 0.0015687682273 -4.16004814288e-16 0.00156876822724)
(0.00161197882535 0.000733443157568 1.61806622119e-05 0.00161197882538 -4.39644120366e-16 0.00161197882531)
(0.00165362320025 0.000755735077138 1.49620026917e-05 0.00165362320028 -4.54780303445e-16 0.00165362320021)
(0.00169340592391 0.000776918799307 1.37731439538e-05 0.00169340592394 -4.57505199969e-16 0.00169340592387)
(0.00173098668019 0.00079685804881 1.26222253605e-05 0.00173098668023 -4.49852501053e-16 0.00173098668016)
(0.00176597517295 0.000815398148951 1.15153562224e-05 0.00176597517299 -4.3200817382e-16 0.00176597517292)
(0.00179792319707 0.000832362469378 1.04568393754e-05 0.0017979231971 -4.012005204e-16 0.00179792319703)
(0.00182631291679 0.000847546844172 9.44942789542e-06 0.00182631291682 -3.60414783896e-16 0.00182631291675)
(0.00185054017403 0.000860711446477 8.49459333912e-06 0.00185054017406 -3.13157684224e-16 0.001850540174)
(0.00186989130841 0.000871569366742 7.59278996349e-06 0.00186989130844 -2.58872786449e-16 0.00186989130838)
(0.00188351147997 0.000879770779813 6.7437035388e-06 0.00188351148 -1.94117577924e-16 0.00188351147995)
(0.0018903618248 0.000884881057696 5.94647860144e-06 0.00189036182483 -1.21740537566e-16 0.00189036182477)
(0.00188916195475 0.000886350416976 5.1999214451e-06 0.00188916195477 -4.45798279122e-17 0.00188916195472)
(0.0018783134722 0.000883471602722 4.50267953804e-06 0.00187831347222 3.40571199936e-17 0.00187831347218)
(0.00185579976055 0.000875320663281 3.85340120647e-06 0.00185579976057 1.12388065286e-16 0.00185579976054)
(0.00181905862503 0.000860674239093 3.25088235537e-06 0.00181905862504 1.88737246788e-16 0.00181905862501)
(0.00176483076953 0.00083789595599 2.69421147008e-06 0.00176483076954 2.59507564405e-16 0.00176483076951)
(0.00168900700189 0.000804788117048 2.1829312689e-06 0.0016890070019 3.20633180989e-16 0.00168900700188)
(0.00158655035295 0.000758424737644 1.71724726706e-06 0.00158655035296 3.67643629091e-16 0.00158655035294)
(0.00145169920863 0.000695053624073 1.29833462216e-06 0.00145169920864 3.94809217207e-16 0.00145169920863)
(0.00127893978701 0.000610373879719 9.28817928448e-07 0.00127893978702 3.95169212214e-16 0.00127893978701)
(0.00106571410675 0.000501042572968 6.13464374196e-07 0.00106571410675 3.61821659724e-16 0.00106571410674)
(0.000818069678587 0.000369051672597 3.59749430301e-07 0.000818069678588 2.92163376702e-16 0.000818069678585)
(0.000558243167467 0.000229238978341 1.76490975219e-07 0.000558243167468 1.96077956801e-16 0.000558243167466)
(0.000325188777625 0.000110870195683 6.68331273648e-08 0.000325188777626 1.01228226032e-16 0.000325188777625)
(0.000155431483798 3.83379351781e-05 1.77882878647e-08 0.000155431483798 3.70103811681e-17 0.000155431483798)
(5.79586330883e-05 8.6243707912e-06 2.96972979412e-09 5.79586330883e-05 8.73615364323e-18 5.79586330883e-05)
(1.52036665275e-05 1.07872503565e-06 2.55561589929e-10 1.52036665275e-05 1.13967655183e-18 1.52036665275e-05)
(2.81895818692e-06 6.6948662848e-08 9.21405717176e-12 2.81895818692e-06 7.34152064928e-20 2.81895818692e-06)
(5.84300523112e-06 2.39091803759e-08 1.07034693249e-12 5.84300523112e-06 2.71096869723e-20 5.84300523112e-06)
(0.000692604988853 2.65862370496e-05 7.80305476381e-05 0.00069260498878 2.99047583357e-17 0.000692604988927)
(0.000706626296507 7.84658732067e-05 7.84635804912e-05 0.000706626296435 7.24923474293e-17 0.000706626296579)
(0.000732096839373 0.000127725615951 7.92055106006e-05 0.000732096839304 7.70150137885e-17 0.000732096839443)
(0.000766375479207 0.00017434974011 8.01069314963e-05 0.000766375479141 1.03075471675e-16 0.000766375479272)
(0.000807055664567 0.000218381166002 8.10188932517e-05 0.000807055664506 1.84116753851e-16 0.000807055664627)
(0.000852123915027 0.000259929029786 8.18075318104e-05 0.000852123914972 2.16190182395e-16 0.000852123915081)
(0.000899999742493 0.000299159883109 8.23606351516e-05 0.000899999742446 2.43841930194e-16 0.000899999742541)
(0.000949504479753 0.0003362802109 8.2589722185e-05 0.000949504479713 2.70886495594e-16 0.000949504479794)
(0.00099979842416 0.000371517463286 8.24300612121e-05 0.000999798424127 2.59223120379e-16 0.000999798424193)
(0.00105031042858 0.00040510323635 8.18398001961e-05 0.00105031042855 2.25948616424e-16 0.00105031042861)
(0.00110067186605 0.000437259731253 8.07986015698e-05 0.00110067186603 1.41645376503e-16 0.00110067186606)
(0.00115065957813 0.000468189526862 7.93058369046e-05 0.00115065957812 3.43310274824e-17 0.00115065957814)
(0.00120014874547 0.000498068362092 7.73783194098e-05 0.00120014874546 -1.08628984888e-16 0.00120014874547)
(0.00124907505377 0.000527040557648 7.50475931109e-05 0.00124907505378 -2.66464987593e-16 0.00124907505377)
(0.00129740500719 0.000555216700003 7.2356870593e-05 0.0012974050072 -4.26252349064e-16 0.00129740500719)
(0.00134511316642 0.000582673202319 6.93577740308e-05 0.00134511316643 -5.93094808111e-16 0.00134511316641)
(0.00139216516915 0.000609453341769 6.6107068712e-05 0.00139216516916 -7.52220694639e-16 0.00139216516913)
(0.00143850549697 0.00063556936172 6.26635802034e-05 0.001438505497 -9.07618165261e-16 0.00143850549695)
(0.00148404904147 0.000661005230147 5.90854604683e-05 0.0014840490415 -1.04595336882e-15 0.00148404904145)
(0.00152867558495 0.000685719660766 5.5427923554e-05 0.00152867558498 -1.16781844402e-15 0.00152867558493)
(0.00157222635418 0.000709649037578 5.17415178628e-05 0.00157222635421 -1.25639325274e-15 0.00157222635415)
(0.00161450183592 0.00073270992309 4.80709484627e-05 0.00161450183595 -1.31379116669e-15 0.00161450183589)
(0.00165526006683 0.000754800872702 4.44544186391e-05 0.00165526006686 -1.35761027963e-15 0.00165526006679)
(0.0016942146253 0.000775803310838 4.09234263243e-05 0.00169421462533 -1.37016554834e-15 0.00169421462527)
(0.00173103155402 0.00079558124276 3.75029308649e-05 0.00173103155405 -1.34289928575e-15 0.00173103155399)
(0.00176532441697 0.000813979567115 3.42117990545e-05 0.001765324417 -1.29092464352e-15 0.00176532441693)
(0.00179664662749 0.00083082070991 3.10634414793e-05 0.00179664662753 -1.20513871025e-15 0.00179664662746)
(0.00182448005441 0.00084589921292 2.80665597732e-05 0.00182448005444 -1.08121975022e-15 0.00182448005438)
(0.0018482186953 0.000858973756026 2.52259396247e-05 0.00184821869533 -9.36721173101e-16 0.00184821869527)
(0.00186714587199 0.000869755857426 2.25432391812e-05 0.00186714587202 -7.67207485834e-16 0.00186714587196)
(0.00188040292116 0.000877894137753 2.00177377351e-05 0.00188040292119 -5.75487041645e-16 0.00188040292113)
(0.00188694670073 0.00088295250931 1.76470232968e-05 0.00188694670076 -3.6551584766e-16 0.00188694670071)
(0.00188549242597 0.000884379885132 1.54276095918e-05 0.00188549242599 -1.4055860078e-16 0.00188549242594)
(0.00187443752157 0.000881467920463 1.33554832784e-05 0.00187443752159 9.06866582799e-17 0.00187443752155)
(0.00185176178692 0.000873291857614 1.14265913237e-05 0.00185176178694 3.23157019842e-16 0.0018517617869)
(0.00181490051858 0.000858627927719 9.63728883746e-06 0.0018149005186 5.4828364343e-16 0.00181490051856)
(0.00176059370393 0.000835839964486 7.98478002336e-06 0.00176059370395 7.56470082958e-16 0.00176059370392)
(0.00168473440941 0.000802731558337 6.46760656543e-06 0.00168473440942 9.36779924706e-16 0.0016847344094)
(0.00158229294333 0.00075638009769 5.08627390195e-06 0.00158229294334 1.07556066399e-15 0.00158229294332)
(0.00144752345385 0.000693041043644 3.84416732678e-06 0.00144752345385 1.15564540096e-15 0.00144752345384)
(0.00127494159712 0.000608429964126 2.74897881952e-06 0.00127494159712 1.15665759195e-15 0.00127494159712)
(0.00106203724519 0.000499236622552 1.81476060904e-06 0.00106203724519 1.05867733484e-15 0.00106203724518)
(0.000814916908967 0.000367504639666 1.06358182687e-06 0.000814916908968 8.53949898887e-16 0.000814916908965)
(0.000555839936809 0.000228107382923 5.21419399814e-07 0.000555839936809 5.72370477241e-16 0.000555839936808)
(0.000323655628115 0.000110235797537 1.97306732513e-07 0.000323655628116 2.95134740304e-16 0.000323655628115)
(0.000154656183092 3.80940527022e-05 5.24844884562e-08 0.000154656183092 1.07772917514e-16 0.000154656183092)
(5.7662391991e-05 8.5662850987e-06 8.75922909177e-09 5.7662391991e-05 2.54144790898e-17 5.7662391991e-05)
(1.51257484997e-05 1.0713286773e-06 7.53693624886e-10 1.51257484997e-05 3.31283758345e-18 1.51257484997e-05)
(2.80579811935e-06 6.65188645626e-08 2.71855179217e-11 2.80579811935e-06 2.13347203753e-19 2.80579811935e-06)
(5.82245889651e-06 2.37834257768e-08 3.1616395724e-12 5.82245889651e-06 7.88154598323e-20 5.82245889651e-06)
(0.000718113726413 2.68373828244e-05 0.000127019328726 0.000718113726343 -1.16753284958e-17 0.000718113726484)
(0.00073209519376 7.92073943089e-05 0.00012772196898 0.000732095193691 -1.0879577928e-17 0.000732095193829)
(0.0007574945265 0.000128933379503 0.000128930362856 0.000757494526433 2.18077115048e-17 0.000757494526567)
(0.00079167384724 0.000175995677272 0.000130407982734 0.000791673847177 7.20799172573e-17 0.000791673847303)
(0.000832219381847 0.000220428079135 0.000131918042158 0.000832219381789 1.55621878459e-16 0.000832219381905)
(0.00087709969288 0.000262326531906 0.000133246146884 0.000877099692828 2.27044184704e-16 0.000877099692932)
(0.00092470886746 0.000301842868812 0.000134210738845 0.000924708867414 2.74183601095e-16 0.000924708867506)
(0.00097383982788 0.000339169951403 0.000134666674206 0.000973839827841 3.02414435379e-16 0.000973839827919)
(0.00102362569575 0.000374524717355 0.000134505615817 0.00102362569572 2.87844530629e-16 0.00102362569579)
(0.00107347273595 0.000408132606786 0.000133655044779 0.00107347273592 2.1221114261e-16 0.00107347273597)
(0.00112299667504 0.000440214562955 0.000132076504119 0.00112299667502 8.27753727054e-17 0.00112299667506)
(0.00117196705066 0.000470976763994 0.000129763149107 0.00117196705065 -7.61213529301e-17 0.00117196705067)
(0.00122026062413 0.000500602907 0.000126736544286 0.00122026062413 -2.88475735903e-16 0.00122026062414)
(0.00126782333649 0.000529248800953 0.000123042705056 0.00126782333649 -5.18454542254e-16 0.00126782333648)
(0.00131463977869 0.000557039017481 0.000118747494336 0.00131463977869 -7.59110123688e-16 0.00131463977868)
(0.00136070909016 0.000584065337907 0.00011393159539 0.00136070909017 -1.01267042658e-15 0.00136070909015)
(0.00140602629649 0.000610386709811 0.000108685347341 0.0014060262965 -1.25956849356e-15 0.00140602629647)
(0.00145056821331 0.000636030394893 0.000103103751975 0.00145056821333 -1.49168376353e-15 0.00145056821329)
(0.00149428312988 0.000660993963834 9.72819324092e-05 0.0014942831299 -1.70292477887e-15 0.00149428312986)
(0.00153708353233 0.000685247781621 9.13112649552e-05 0.00153708353235 -1.88559793381e-15 0.0015370835323)
(0.00157884114148 0.000708737628108 8.52763256298e-05 0.00157884114151 -2.0328920263e-15 0.00157884114145)
(0.00161938353475 0.000731387114879 7.9252707386e-05 0.00161938353478 -2.13802578503e-15 0.00161938353472)
(0.00165849160539 0.000753099585363 7.33056879808e-05 0.00165849160542 -2.19399269314e-15 0.00165849160536)
(0.00169589709047 0.000773759207086 6.74896669756e-05 0.0016958970905 -2.20571094087e-15 0.00169589709043)
(0.00173127936839 0.000793230982873 6.18482500665e-05 0.00173127936842 -2.1655255567e-15 0.00173127936835)
(0.00176426067939 0.000811359403578 5.64148379929e-05 0.00176426067942 -2.07456105293e-15 0.00176426067935)
(0.00179439884219 0.000827965426731 5.12135756338e-05 0.00179439884222 -1.93616501471e-15 0.00179439884216)
(0.0018211764069 0.00084284138888 4.62605267859e-05 0.00182117640693 -1.74878933735e-15 0.00182117640687)
(0.0018439849705 0.000855743314607 4.15649597476e-05 0.00184398497053 -1.51061302448e-15 0.00184398497047)
(0.00186210305703 0.000866379857994 3.71306532564e-05 0.00186210305706 -1.23046282641e-15 0.00186210305701)
(0.00187466549661 0.00087439676278 3.29571559438e-05 0.00187466549664 -9.19787287393e-16 0.00187466549659)
(0.00188062160251 0.000879355207227 2.90409572734e-05 0.00188062160254 -5.81565084245e-16 0.00188062160249)
(0.00187867865935 0.000880701640832 2.5376547781e-05 0.00187867865937 -2.23630304844e-16 0.00187867865933)
(0.00186722643468 0.000877725642362 2.19573654986e-05 0.0018672264347 1.46432496609e-16 0.00186722643466)
(0.00184423807581 0.00086950090364 1.87766418084e-05 0.00184423807583 5.17905847491e-16 0.0018442380758)
(0.00180714416443 0.000854802850527 1.58281779342e-05 0.00180714416444 8.7757929697e-16 0.00180714416441)
(0.00175268328202 0.000831995674054 1.3107105101e-05 0.00175268328203 1.21065663153e-15 0.00175268328201)
(0.00167675264311 0.000798885358733 1.06107171763e-05 0.00167675264312 1.49933002184e-15 0.0016767526431)
(0.00157433611404 0.000752555621257 8.33952498322e-06 0.00157433611405 1.7218459208e-15 0.00157433611403)
(0.00143971732531 0.000689276318261 6.29878221686e-06 0.00143971732532 1.84965814907e-15 0.00143971732531)
(0.00126746705445 0.000604793984755 4.50084381726e-06 0.00126746705445 1.85035099759e-15 0.00126746705444)
(0.00105516469132 0.000495859786321 2.96853553009e-06 0.00105516469132 1.69219979334e-15 0.00105516469132)
(0.000809026668993 0.000364613967581 1.73781233223e-06 0.000809026668995 1.36347188179e-15 0.000809026668992)
(0.000551353278691 0.000225995408508 8.50824534514e-07 0.000551353278691 9.12620001798e-16 0.00055135327869)
(0.000320795649212 0.000109053455445 3.2151446567e-07 0.000320795649212 4.69879309756e-16 0.000320795649212)
(0.000153210792616 3.76400947487e-05 8.54303244288e-08 0.000153210792616 1.71375057918e-16 0.000153210792616)
(5.71102719974e-05 8.45824978327e-06 1.42484880645e-08 5.71102719974e-05 4.0383680004e-17 5.71102719974e-05)
(1.49805370744e-05 1.05757593802e-06 1.22575711409e-09 1.49805370744e-05 5.2627760296e-18 1.49805370744e-05)
(2.78125685325e-06 6.57192214096e-08 4.42485641264e-11 2.78125685325e-06 3.39202494665e-19 2.78125685325e-06)
(5.7840531343e-06 2.35489489833e-08 5.1571843052e-12 5.7840531343e-06 1.25589452068e-19 5.7840531343e-06)
(0.0007524471799 2.71414253261e-05 0.000173392150181 0.000752447179833 -5.12013469487e-17 0.000752447179967)
(0.000766371962427 8.01083127249e-05 0.000174344966986 0.000766371962361 -8.50523948062e-17 0.000766371962492)
(0.000791671958933 0.000130410222617 0.000175991699849 0.000791671958871 -4.92866965799e-17 0.000791671958996)
(0.000825717556793 0.000178025245561 0.000178022252319 0.000825717556734 4.38659204448e-18 0.000825717556852)
(0.000866089530047 0.000222976309036 0.000180124577231 0.000866089529992 8.97187166758e-17 0.000866089530101)
(0.0009107360751 0.000265341658024 0.000182013380409 0.000910736075051 1.83642728505e-16 0.000910736075149)
(0.00095801970956 0.000305252178253 0.000183443789621 0.000958019709517 2.48461264726e-16 0.000958019709603)
(0.00100669621745 0.000342880273274 0.000184216475087 0.00100669621742 2.71568708011e-16 0.00100669621749)
(0.00105586156912 0.000378425872069 0.00018417876374 0.00105586156909 2.43205154791e-16 0.00105586156915)
(0.00110488946133 0.000412102805229 0.000183224018036 0.00110488946131 1.52039061998e-16 0.00110488946136)
(0.00115337103461 0.00044412681668 0.000181290057046 0.0011533710346 7.02468570025e-18 0.00115337103463)
(0.0012010614435 0.000474705512575 0.000178356695591 0.00120106144349 -1.86448160834e-16 0.00120106144351)
(0.00124783440533 0.00050403022454 0.000174442279045 0.00124783440533 -4.33203810963e-16 0.00124783440534)
(0.00129364431809 0.000532269692053 0.000169599150642 0.00129364431809 -7.15523424389e-16 0.00129364431808)
(0.00133849504155 0.000559565466803 0.000163908132116 0.00133849504155 -1.02390326353e-15 0.00133849504154)
(0.00138241440002 0.000586028932535 0.000157472253718 0.00138241440003 -1.34095562572e-15 0.00138241440001)
(0.00142543358601 0.000611739801945 0.00015041007843 0.00142543358602 -1.65850195208e-15 0.00142543358599)
(0.00146757078114 0.000636745905025 0.000142849021458 0.00146757078116 -1.95831206013e-15 0.00146757078112)
(0.00150881840628 0.00066106402842 0.000134919058171 0.0015088184063 -2.2272758383e-15 0.00150881840626)
(0.00154913345354 0.000684681517805 0.000126747160804 0.00154913345357 -2.45615638142e-15 0.00154913345351)
(0.00158843034559 0.000707558318318 0.000118452709984 0.00158843034561 -2.6552259429e-15 0.00158843034556)
(0.00162657572568 0.000729629109271 0.000110144022808 0.00162657572571 -2.80925546221e-15 0.00162657572565)
(0.00166338452063 0.000750805185927 0.000101916029012 0.00166338452066 -2.87367567294e-15 0.0016633845206)
(0.00169861654782 0.000770975745413 9.38490348586e-05 0.00169861654785 -2.88617540896e-15 0.00169861654779)
(0.00173197286186 0.00079000824127 8.60084440435e-05 0.00173197286189 -2.84490278603e-15 0.00173197286183)
(0.00176309095094 0.00080774746829 7.84452604181e-05 0.00176309095097 -2.71925173083e-15 0.00176309095091)
(0.00179153778689 0.000824013009316 7.11971795234e-05 0.00179153778692 -2.52738213362e-15 0.00179153778686)
(0.00181679958535 0.000838594606197 6.42900800998e-05 0.00181679958537 -2.28405347825e-15 0.00181679958532)
(0.00183826691679 0.000851244890572 5.77397443871e-05 0.00183826691681 -1.9759912469e-15 0.00183826691676)
(0.00185521349265 0.000861668691407 5.15536665574e-05 0.00185521349267 -1.6109436913e-15 0.00185521349262)
(0.00186676649836 0.000869507799903 4.5732840774e-05 0.00186676649838 -1.20009782516e-15 0.00186676649834)
(0.00187186573272 0.000874319563047 4.02734545195e-05 0.00187186573274 -7.51745051506e-16 0.0018718657327)
(0.00186920805563 0.000875546924427 3.51684436959e-05 0.00186920805565 -2.77945242256e-16 0.00186920805561)
(0.00185717288408 0.000872476469349 3.04088950144e-05 0.0018571728841 2.12943387882e-16 0.00185717288406)
(0.0018337241825 0.000864179622141 2.59853067719e-05 0.00183372418252 7.04299581934e-16 0.00183372418248)
(0.00179628589593 0.000849430590463 2.18887461069e-05 0.00179628589594 1.18147172205e-15 0.00179628589591)
(0.00174159451407 0.000826594000235 1.81119743167e-05 0.00174159451408 1.62380086907e-15 0.00174159451406)
(0.00166555293277 0.000793479172295 1.46506618264e-05 0.00166555293278 2.00718273709e-15 0.00166555293276)
(0.00156316397007 0.000747178761934 1.15049000921e-05 0.00156316397007 2.30152585927e-15 0.00156316397006)
(0.00142875270781 0.000683983035702 8.68135632866e-06 0.00142875270781 2.46927218773e-15 0.0014287527078)
(0.00125696754354 0.000599682442638 6.19656651659e-06 0.00125696754354 2.46734348193e-15 0.00125696754354)
(0.00104551372624 0.000491115014822 4.08159001815e-06 0.00104551372624 2.25317328611e-15 0.00104551372624)
(0.000800761233393 0.00036055684 2.38556339572e-06 0.000800761233395 1.81249947844e-15 0.000800761233392)
(0.000545064600921 0.000223036618793 1.1657498353e-06 0.000545064600922 1.21072808144e-15 0.000545064600921)
(0.000316792069265 0.000107400744872 4.39667228669e-07 0.000316792069265 6.22025945811e-16 0.000316792069264)
(0.000151189370719 3.70067936854e-05 1.1664362568e-07 0.000151189370719 2.2648165532e-16 0.000151189370719)
(5.63384694561e-05 8.30771774157e-06 1.94368375787e-08 5.63384694561e-05 5.33170458963e-17 5.63384694561e-05)
(1.47775661624e-05 1.03842209495e-06 1.67159110253e-09 1.47775661624e-05 6.9462200419e-18 1.47775661624e-05)
(2.746919771e-06 6.46044854047e-08 6.04119615876e-11 2.746919771e-06 4.48252264017e-19 2.746919771e-06)
(5.73011903917e-06 2.32209636895e-08 7.06251619911e-12 5.73011903917e-06 1.66488293056e-19 5.73011903917e-06)
(0.000793204032553 2.74472885816e-05 0.000217197340123 0.000793204032492 -9.02382619604e-17 0.000793204032615)
(0.000807050377307 8.10197448748e-05 0.000218375541867 0.000807050377246 -1.67170171375e-16 0.000807050377367)
(0.000832215681947 0.000131919460402 0.000220423358195 0.000832215681889 -1.43019401843e-16 0.000832215682005)
(0.000866087690293 0.000180126524576 0.000222972710134 0.000866087690239 -8.78862239166e-17 0.000866087690348)
(0.000906248707893 0.000225653448231 0.000225651047748 0.000906248707843 -1.50211467891e-18 0.000906248707943)
(0.000950629832467 0.000268558004782 0.000228113872449 0.000950629832422 9.36701845623e-17 0.000950629832512)
(0.000997561246313 0.000308944997977 0.000230060780123 0.000997561246274 1.72135857272e-16 0.000997561246353)
(0.00104575729531 0.000346959808742 0.000231242049518 0.00104575729527 2.04087255331e-16 0.00104575729534)
(0.00109426984423 0.000382778234155 0.000231460762736 0.0010942698442 1.76049651711e-16 0.00109426984425)
(0.00114243139863 0.000416595550375 0.00023057300693 0.00114243139861 8.11492586016e-17 0.00114243139865)
(0.00118979917997 0.000448616121516 0.000228487035614 0.00118979917995 -7.84796118686e-17 0.00118979917998)
(0.00123610479651 0.000479044008062 0.000225161447988 0.0012361047965 -2.91083230539e-16 0.00123610479652)
(0.00128121070758 0.000508074708494 0.000220602186394 0.00128121070758 -5.4079636391e-16 0.00128121070758)
(0.00132507316591 0.000535888092658 0.000214858189366 0.00132507316592 -8.37485222693e-16 0.00132507316591)
(0.00136771083599 0.000562642583672 0.000208015705621 0.001367710836 -1.20362246116e-15 0.00136771083599)
(0.00140917826681 0.000588470643685 0.000200191457757 0.00140917826682 -1.57717476069e-15 0.0014091782668)
(0.00144954354541 0.000613475589713 0.000191525004667 0.00144954354543 -1.9351055428e-15 0.0014495435454)
(0.00148886962323 0.000637729710713 0.000182170752083 0.00148886962325 -2.2799396862e-15 0.00148886962321)
(0.00152719892715 0.000661273585601 0.000172290096782 0.00152719892717 -2.60244263555e-15 0.00152719892713)
(0.00156454091965 0.000684116420742 0.000162044162071 0.00156454091968 -2.87756980938e-15 0.00156454091963)
(0.00160086226053 0.000706237151012 0.00015158750332 0.00160086226055 -3.09975953199e-15 0.0016008622605)
(0.0016360791586 0.000727585988015 0.000141063048148 0.00163607915863 -3.26221031203e-15 0.00163607915857)
(0.0016700514021 0.000748086054416 0.000130598406645 0.00167005140213 -3.35363279844e-15 0.00167005140207)
(0.00170257743685 0.000767634720361 0.000120303561736 0.00170257743688 -3.3819853995e-15 0.00170257743683)
(0.0017333897318 0.000786104242768 0.000110269843855 0.00173338973183 -3.32230468624e-15 0.00173338973177)
(0.00176214953542 0.000803341295502 0.000100570014595 0.00176214953545 -3.19141982911e-15 0.00176214953539)
(0.00178843997775 0.00081916495264 9.12592384361e-05 0.00178843997778 -2.97929972704e-15 0.00178843997773)
(0.00181175629495 0.000833362625531 8.23767043553e-05 0.00181175629498 -2.68583720761e-15 0.00181175629493)
(0.00183149172204 0.000845683339183 7.39476696774e-05 0.00183149172206 -2.32302607661e-15 0.00183149172202)
(0.00184691728105 0.000855827535499 6.59857235275e-05 0.00184691728108 -1.89468405741e-15 0.00184691728103)
(0.00185715325094 0.000863432265933 5.84951073397e-05 0.00185715325096 -1.40612627934e-15 0.00185715325092)
(0.00186112951549 0.000868050141921 5.14729710821e-05 0.00186112951551 -8.69007193694e-16 0.00186112951547)
(0.00185753126243 0.000869119676918 4.49114873124e-05 0.00185753126244 -2.99560811869e-16 0.00185753126241)
(0.00184472579343 0.000865923604356 3.87997853587e-05 0.00184472579344 2.91267808759e-16 0.00184472579341)
(0.00182066598432 0.000857530374669 3.31257058559e-05 0.00182066598433 8.843370381e-16 0.00182066598431)
(0.00178276755559 0.000842712533912 2.78774149396e-05 0.0017827675556 1.45954841435e-15 0.00178276755557)
(0.00172776425633 0.000819835142006 2.30449634802e-05 0.00172776425634 1.99325565676e-15 0.00172776425632)
(0.00165156589187 0.000786711648623 1.86219442474e-05 0.00165156589188 2.45557660879e-15 0.00165156589186)
(0.00154919885413 0.000740445971586 1.46075111013e-05 0.00154919885414 2.80878210686e-15 0.00154919885413)
(0.00141504014171 0.000677354219975 1.10092009698e-05 0.00141504014172 3.00835848973e-15 0.00141504014171)
(0.0012438355472 0.000593282459474 7.84718295176e-06 0.0012438355472 3.00116357179e-15 0.0012438355472)
(0.00103344790019 0.000485178387168 5.16017991821e-06 0.00103344790019 2.73576305631e-15 0.00103344790018)
(0.000790437735147 0.000355488154554 3.00979606772e-06 0.000790437735148 2.19572165761e-15 0.000790437735145)
(0.00053722195574 0.000219349090116 1.46726445694e-06 0.000537221955741 1.46272274609e-15 0.000537221955739)
(0.000311807534754 0.00010534706801 5.52031872808e-07 0.000311807534754 7.49458467264e-16 0.000311807534754)
(0.000148675815373 3.62218973279e-05 1.46168015362e-07 0.000148675815373 2.72291195331e-16 0.000148675815373)
(5.53793418063e-05 8.1214524896e-06 2.43290440892e-08 5.53793418063e-05 6.40205574257e-17 5.53793418063e-05)
(1.45253618644e-05 1.01473557536e-06 2.09153699238e-09 1.45253618644e-05 8.33733993353e-18 1.45253618644e-05)
(2.7041966957e-06 6.32242123581e-08 7.56985677572e-11 2.7041966957e-06 5.38825772666e-19 2.7041966957e-06)
(5.66268279407e-06 2.28130085884e-08 8.88354252909e-12 5.66268279407e-06 2.00907125959e-19 5.66268279407e-06)
(0.00083838172694 2.77092625229e-05 0.000258551253491 0.000838381726884 -1.04098984858e-16 0.000838381726996)
(0.000852117156327 8.18078752386e-05 0.000259922841168 0.000852117156272 -2.2133570608e-16 0.000852117156381)
(0.00087709445532 0.000133246773456 0.000262321300993 0.000877094455268 -2.26364501985e-16 0.000877094455372)
(0.000910732638207 0.000182014314881 0.00026533762265 0.000910732638158 -1.75196089528e-16 0.000910732638256)
(0.000950628201507 0.00022811510566 0.000268555253488 0.000950628201462 -8.91068666852e-17 0.000950628201552)
(0.000994704353847 0.000271585607157 0.000271584114139 0.000994704353806 1.81159840455e-18 0.000994704353887)
(0.001041263777 0.000312500916566 0.000274078022503 0.00104126377696 7.89936165304e-17 0.00104126377704)
(0.00108897983018 0.000350973677483 0.000275742533223 0.00108897983015 1.18504781822e-16 0.00108897983021)
(0.0011368568579 0.000387148483846 0.000276338231909 0.00113685685788 1.01362255745e-16 0.00113685685792)
(0.00118417965564 0.000421194335408 0.000275682107963 0.00118417965562 2.11944774247e-17 0.00118417965566)
(0.0012304627555 0.000453296483088 0.000273647922529 0.00123046275549 -1.31041364341e-16 0.00123046275551)
(0.00127540407263 0.000483648258122 0.000270165597648 0.00127540407263 -3.51136529708e-16 0.00127540407264)
(0.00131884415233 0.00051244316402 0.000265219343471 0.00131884415232 -6.25709805965e-16 0.00131884415233)
(0.00136073077627 0.000539867428748 0.000258844247794 0.00136073077628 -9.50720895272e-16 0.00136073077627)
(0.00140108820184 0.000566093212142 0.000251121212647 0.00140108820185 -1.3073470658e-15 0.00140108820183)
(0.00143999029636 0.000591272668138 0.000242170329375 0.00143999029637 -1.69253251843e-15 0.00143999029635)
(0.00147753699628 0.000615533047888 0.000232142978758 0.00147753699629 -2.07824213646e-15 0.00147753699627)
(0.00151383371701 0.000638972979728 0.000221213094624 0.00151383371703 -2.44953685058e-15 0.001513833717)
(0.00154897349234 0.000661659984211 0.000209568121465 0.00154897349236 -2.79893614806e-15 0.00154897349232)
(0.00158302170423 0.000683629186154 0.000197400217409 0.00158302170425 -3.10887508414e-15 0.00158302170421)