/*--------------------------------*- C++ -*----------------------------------*\
| =========                 |                                                 |
| \\      /  F ield         | OpenFOAM: The Open Source CFD Toolbox           |
|  \\    /   O peration     | Version:  3.0.1                                 |
|   \\  /    A nd           | Web:      www.OpenFOAM.org                      |
|    \\/     M anipulation  |                                                 |
\*---------------------------------------------------------------------------*/
FoamFile
{
    version     2.0;
    format      ascii;
    class       volVectorField;
    location    "50000";
    object      U;
}
// * * * * * * * * * * * * * * * * * * * * * * * * * * * * * * * * * * * * * //

dimensions      [0 1 -1 0 0 0 0];

internalField   nonuniform List<vector> 
2500
(
(0.648064416529 3.08558286824e-13 -3.07383084627e-13)
(0.6472225691 9.03280780978e-13 -3.00172468673e-13)
(0.645665059745 1.44917211101e-12 -2.86973266625e-13)
(0.643509001792 1.9415621374e-12 -2.68576373313e-13)
(0.640856421421 2.37745738956e-12 -2.46541180071e-13)
(0.63779173294 2.75450821413e-12 -2.21835315675e-13)
(0.63438205498 3.07422163227e-12 -1.94760969111e-13)
(0.630679091333 3.33891311185e-12 -1.66480923811e-13)
(0.626721555212 3.55113820879e-12 -1.3717856017e-13)
(0.622537557468 3.71455486118e-12 -1.0751402617e-13)
(0.618146709618 3.83247692315e-12 -7.78624908421e-14)
(0.613561875182 3.90909891862e-12 -4.83095128179e-14)
(0.608790584191 3.94794794173e-12 -1.93015470429e-14)
(0.603836153161 3.95327033608e-12 9.1335443648e-15)
(0.598698556009 3.9288952776e-12 3.67947888642e-14)
(0.593375085834 3.87818409577e-12 6.36077163134e-14)
(0.587860839842 3.80461970213e-12 8.9398460062e-14)
(0.582149052719 3.71120092394e-12 1.14142472206e-13)
(0.576231297903 3.60098394072e-12 1.37783797848e-13)
(0.570097571516 3.47663660385e-12 1.60260614387e-13)
(0.563736269584 3.34059618912e-12 1.81544770569e-13)
(0.557134065361 3.19512113461e-12 2.0161849465e-13)
(0.55027568954 3.04223374548e-12 2.20457521357e-13)
(0.543143611627 2.8837372737e-12 2.38070828836e-13)
(0.535717615356 2.72132186233e-12 2.54410505118e-13)
(0.527974254422 2.55649510003e-12 2.69502946912e-13)
(0.519886166441 2.39056666484e-12 2.83305222886e-13)
(0.511421212271 2.22473288949e-12 2.95806388512e-13)
(0.502541393587 2.06002403464e-12 3.06979721959e-13)
(0.493201482549 1.89737270074e-12 3.16831790248e-13)
(0.483347271369 1.73764911392e-12 3.25310743348e-13)
(0.472913313994 1.58157219678e-12 3.32351993298e-13)
(0.461819983158 1.42981264444e-12 3.37889119437e-13)
(0.449969600069 1.28297428403e-12 3.41835470112e-13)
(0.437241308538 1.14156842815e-12 3.44098338033e-13)
(0.423484266637 1.00612546866e-12 3.44531042546e-13)
(0.408508650657 8.77112883403e-13 3.42951305674e-13)
(0.39207402508 7.54974796905e-13 3.3911839806e-13)
(0.373875179409 6.40179278378e-13 3.3272198964e-13)
(0.353527551357 5.33186183445e-13 3.23344141848e-13)
(0.330560387299 4.34537886167e-13 3.10455416673e-13)
(0.30444134984 3.44818677617e-13 2.93406471563e-13)
(0.27468749999 2.64676977239e-13 2.71524995163e-13)
(0.241141993444 1.94804374381e-13 2.44358909237e-13)
(0.204378180815 1.35795119797e-13 2.12157433739e-13)
(0.16580521211 8.79947909204e-14 1.76104427373e-13)
(0.127044868663 5.12219117991e-14 1.37847502714e-13)
(0.0891644368072 2.48171951659e-14 9.86785064076e-14)
(0.0525735238201 8.15655476773e-15 5.92824430474e-14)
(0.0173439341428 4.34713802672e-16 1.997801362e-14)
(0.647222596648 3.00807856903e-13 -9.0086364558e-13)
(0.64637959048 8.80767991313e-13 -8.79560469457e-13)
(0.644819759565 1.41371509182e-12 -8.40490986399e-13)
(0.642660217712 1.89433652968e-12 -7.86773036711e-13)
(0.640003124791 2.31924059908e-12 -7.22087922538e-13)
(0.636933189018 2.68723649234e-12 -6.49371190861e-13)
(0.633517944052 2.99911530435e-12 -5.70201004633e-13)
(0.629809570003 3.25712948778e-12 -4.87283848459e-13)
(0.625847263021 3.4639879712e-12 -4.01697659493e-13)
(0.621659582304 3.62283361185e-12 -3.15025032712e-13)
(0.61726652519 3.73754393168e-12 -2.28092674475e-13)
(0.612681261286 3.81192424594e-12 -1.41721952716e-13)
(0.607911538072 3.84941246604e-12 -5.66684136817e-14)
(0.602960798514 3.85440561732e-12 2.6700722704e-14)
(0.597829054931 3.83049362496e-12 1.07746383881e-13)
(0.592513558013 3.78086816214e-12 1.8621585649e-13)
(0.587009292302 3.70894480052e-12 2.61771725441e-13)
(0.581309322431 3.61779283018e-12 3.34215771421e-13)
(0.575405008548 3.51025414405e-12 4.03422086331e-13)
(0.569286104648 3.38892582714e-12 4.69216364196e-13)
(0.562940749585 3.25623852473e-12 5.31588303176e-13)
(0.556355356826 3.1143603563e-12 5.9031312032e-13)
(0.549514405249 2.96530957773e-12 6.45452925855e-13)
(0.542400128956 2.81075526466e-12 6.97004551087e-13)
(0.534992098948 2.65240699657e-12 7.44898932927e-13)
(0.527266683007 2.49173775598e-12 7.89060121114e-13)
(0.519196361962 2.32992907898e-12 8.29551771864e-13)
(0.510748869766 2.16822003284e-12 8.66201592905e-13)
(0.501886110659 2.00771913873e-12 8.98975436478e-13)
(0.4925627876 1.84929745171e-12 9.27827578958e-13)
(0.482724650177 1.69361119057e-12 9.5261036848e-13)
(0.472306234575 1.54140245639e-12 9.73209768379e-13)
(0.461227919289 1.39337113644e-12 9.89402787187e-13)
(0.449392054404 1.25018436323e-12 1.00095219974e-12)
(0.436677837078 1.11232683229e-12 1.00754494108e-12)
(0.422934507803 9.80251895294e-13 1.00875627513e-12)
(0.407972365028 8.54447448108e-13 1.00406190606e-12)
(0.391551157469 7.35377305922e-13 9.92751344569e-13)
(0.373365966578 6.2348310723e-13 9.73907078234e-13)
(0.353032722214 5.19201704646e-13 9.46307079743e-13)
(0.330081546673 4.23067427261e-13 9.08403290176e-13)
(0.303981697465 3.35656841286e-13 8.58303911064e-13)
(0.274253008216 2.57572419318e-13 7.94047813594e-13)
(0.240742618812 1.89517140181e-13 7.14368308469e-13)
(0.204027183392 1.32096090455e-13 6.20001208474e-13)
(0.165514689531 8.55822465111e-14 5.14449964687e-13)
(0.126820984408 4.98145262912e-14 4.02540602142e-13)
(0.0890075823792 2.41339283887e-14 2.88049835889e-13)
(0.0524814212742 7.93089978698e-15 1.72981583823e-13)
(0.017313714453 4.23351882045e-16 5.82651467293e-14)
(0.645665129876 2.86972540095e-13 -1.44783612273e-12)
(0.64481980236 8.40668435256e-13 -1.4128919262e-12)
(0.643255358262 1.34986717263e-12 -1.34952894352e-12)
(0.641088941068 1.8089687062e-12 -1.26328688596e-12)
(0.638422967705 2.2145589577e-12 -1.15923130181e-12)
(0.635342683293 2.56578455351e-12 -1.04208510173e-12)
(0.631916374822 2.8631711124e-12 -9.15158441596e-13)
(0.628197090182 3.10880828028e-12 -7.81822667644e-13)
(0.624224912571 3.30551866982e-12 -6.44440778153e-13)
(0.620029234364 3.45649553943e-12 -5.05177198518e-13)
(0.615630781429 3.56533768088e-12 -3.65423765054e-13)
(0.611043314739 3.63565392344e-12 -2.26705855433e-13)
(0.606275017705 3.67102983316e-12 -9.00860238291e-14)
(0.601329606873 3.67525437724e-12 4.36953081564e-14)
(0.596207208231 3.65183465625e-12 1.73717694641e-13)
(0.590905036486 3.60407884501e-12 2.99568091337e-13)
(0.585417907137 3.53510812946e-12 4.20735784219e-13)
(0.579738604052 3.44788742824e-12 5.36927982179e-13)
(0.573858119251 3.34511484467e-12 6.47841293256e-13)
(0.567765776892 3.22937029411e-12 7.53345358908e-13)
(0.56144924953 3.10263799744e-12 8.53260299237e-13)
(0.554894471336 2.96710347005e-12 9.47534089671e-13)
(0.548085449451 2.8250936034e-12 1.03604163301e-12)
(0.541003970772 2.67791688018e-12 1.11873714705e-12)
(0.533629196692 2.52693434796e-12 1.19558995831e-12)
(0.525937132195 2.37394653626e-12 1.26650623172e-12)
(0.517899947766 2.21988745862e-12 1.33145128909e-12)
(0.509485122085 2.06567337187e-12 1.39033307487e-12)
(0.500654359364 1.91275673961e-12 1.44303984965e-12)
(0.491362216229 1.76177099204e-12 1.48936962576e-12)
(0.481554347039 1.61348963232e-12 1.52917366123e-12)
(0.471165240983 1.46856850492e-12 1.56222348231e-12)
(0.460115275467 1.32754517206e-12 1.58821162741e-12)
(0.448306844678 1.19113230441e-12 1.60675491837e-12)
(0.435619237614 1.05971532864e-12 1.61732386582e-12)
(0.421901842912 9.3383336295e-13 1.61926602867e-12)
(0.406965183421 8.13959165213e-13 1.61170867023e-12)
(0.390569350475 7.00494035223e-13 1.59352790878e-12)
(0.372409972155 5.93857864838e-13 1.56322290365e-12)
(0.352103902932 4.94475504937e-13 1.51883901967e-12)
(0.329182912846 4.0286793724e-13 1.45788817178e-12)
(0.303119259247 3.19547797991e-13 1.37734434993e-12)
(0.273437983439 2.45206346129e-13 1.27407495988e-12)
(0.239993685684 1.80435176695e-13 1.14607265787e-12)
(0.203369160899 1.25749656369e-13 9.94562002316e-13)
(0.164970153885 8.14863385795e-14 8.25183021946e-13)
(0.126401391418 4.74380417584e-14 6.45660572698e-13)
(0.0887136209755 2.29875869547e-14 4.62022386894e-13)
(0.052308811989 7.5564087303e-15 2.77464946638e-13)
(0.0172570797237 4.04199521595e-16 9.34640737679e-14)
(0.643509115381 2.68697877978e-13 -1.94099491372e-12)
(0.642660304616 7.86973982787e-13 -1.8937878803e-12)
(0.641088985848 1.263468902e-12 -1.80866895428e-12)
(0.63891237646 1.69308201555e-12 -1.69286996925e-12)
(0.636233247807 2.07232159207e-12 -1.55321396059e-12)
(0.633137558788 2.40048546606e-12 -1.39579526041e-12)
(0.629694598351 2.67816280205e-12 -1.22555531396e-12)
(0.625958579371 2.90716228308e-12 -1.04656413774e-12)
(0.621970792217 3.0901856576e-12 -8.62213860681e-13)
(0.617761783177 3.23031795273e-12 -6.75237671658e-13)
(0.613353310304 3.33102506109e-12 -4.87828494486e-13)
(0.608759998986 3.39552823301e-12 -3.01880411343e-13)
(0.603990700862 3.42740725297e-12 -1.1882757591e-13)
(0.599049590226 3.43028952721e-12 6.02028096753e-14)
(0.593937037988 3.40748747564e-12 2.34235988547e-13)
(0.588650298902 3.36205186976e-12 4.02600753916e-13)
(0.583184040478 3.29691825969e-12 5.64653963055e-13)
(0.577530734618 3.21484301753e-12 7.20057478834e-13)
(0.571680926815 3.1184087387e-12 8.68370373401e-13)
(0.565623392766 3.00991664152e-12 1.0094219448e-12)
(0.559345188326 2.89150559964e-12 1.1429446206e-12)
(0.552831595414 2.76505960259e-12 1.26903878809e-12)
(0.546065963327 2.63231622323e-12 1.38747011527e-12)
(0.539029441438 2.49488842647e-12 1.49802333664e-12)
(0.531700594999 2.35413097043e-12 1.60085439554e-12)
(0.524054890145 2.21139793842e-12 1.69578426118e-12)
(0.516064026692 2.06777486033e-12 1.78265580189e-12)
(0.50769508716 1.92424940209e-12 1.86140719988e-12)
(0.49890945666 1.78164362306e-12 1.93195398586e-12)
(0.489661449375 1.64083046202e-12 1.99399130266e-12)
(0.47989655159 1.50260356852e-12 2.04734082333e-12)
(0.469549155635 1.3674921368e-12 2.09161798827e-12)
(0.458539610534 1.23612266824e-12 2.12646945396e-12)
(0.446770349832 1.10902739034e-12 2.15132869631e-12)
(0.434120773253 9.86624071688e-13 2.16551899056e-12)
(0.420440463593 8.69364522436e-13 2.16814893365e-12)
(0.405540249416 7.57689527585e-13 2.15803791345e-12)
(0.389180698673 6.51998779852e-13 2.13367159277e-12)
(0.37105820861 5.52615210549e-13 2.09302861102e-12)
(0.350790942198 4.6002893027e-13 2.03350320829e-12)
(0.327913006475 3.74721337954e-13 1.95174495871e-12)
(0.301900912812 2.97167492966e-13 1.8437173159e-12)
(0.272287071238 2.27972814723e-13 1.70525380891e-12)
(0.238936587108 1.67698476898e-13 1.53369744188e-12)
(0.202440802049 1.16865381443e-13 1.33078097491e-12)
(0.16420215637 7.57240903826e-14 1.10407545039e-12)
(0.125809698647 4.40774638557e-14 8.63880831162e-13)
(0.0882991054912 2.13531614025e-14 6.18201225508e-13)
(0.0520654163002 7.016427058e-15 3.71278136964e-13)
(0.0171772192338 3.73234092509e-16 1.25073970176e-13)
(0.640856568301 2.46524510336e-13 -2.37698944401e-12)
(0.640003246204 7.22021515647e-13 -2.31887821099e-12)
(0.638423048607 1.15925965445e-12 -2.21433671331e-12)
(0.636233285045 1.55339250164e-12 -2.07214078483e-12)
(0.633537120912 1.90099746653e-12 -1.90079672998e-12)
(0.630421319246 2.20132509744e-12 -1.70750770762e-12)
(0.626956318279 2.45499329385e-12 -1.49854713717e-12)
(0.62319769217 2.6637711009e-12 -1.27891337536e-12)
(0.619188170033 2.83014924177e-12 -1.05279463096e-12)
(0.614959704465 2.9570443618e-12 -8.23524868719e-13)
(0.610535345766 3.04756378318e-12 -5.93885707939e-13)
(0.605930839854 3.10490316779e-12 -3.66086888784e-13)
(0.601155948441 3.13243464873e-12 -1.42018183657e-13)
(0.596215521902 3.13343998288e-12 7.68307842861e-14)
(0.591110362653 3.111057981e-12 2.89442125016e-13)
(0.585837913396 3.06810662145e-12 4.95201890842e-13)
(0.580392797571 3.00737858423e-12 6.93113178128e-13)
(0.574767231859 2.93134105877e-12 8.82823606973e-13)
(0.568951324021 2.84228279841e-12 1.06381627608e-12)
(0.56293326393 2.74241140945e-12 1.23599684158e-12)
(0.556699411467 2.63375104358e-12 1.39893778032e-12)
(0.550234281454 2.51802683801e-12 1.55270127158e-12)
(0.543520422789 2.39643200255e-12 1.69700041035e-12)
(0.536538185775 2.27088770616e-12 1.83189935893e-12)
(0.529265367834 2.14254699965e-12 1.95727482354e-12)
(0.521676722774 2.01224327598e-12 2.07298582171e-12)
(0.513743311848 1.88111968598e-12 2.17905000609e-12)
(0.505431665189 1.75027805015e-12 2.27518923774e-12)
(0.496702708862 1.62048058109e-12 2.36130322498e-12)
(0.487510394214 1.49227106635e-12 2.4370999652e-12)
(0.477799940599 1.366426069e-12 2.50232054357e-12)
(0.467505567258 1.24347246015e-12 2.55648452296e-12)
(0.456547541769 1.1239378661e-12 2.59913151651e-12)
(0.444828307642 1.00826657459e-12 2.62957203492e-12)
(0.432227370869 8.96896533612e-13 2.64695941558e-12)
(0.418594532095 7.90174960404e-13 2.65018820132e-12)
(0.403740984757 6.88547624306e-13 2.6378261812e-12)
(0.387427883731 5.92341134008e-13 2.60798171143e-12)
(0.36935258927 5.01912646839e-13 2.55819689e-12)
(0.34913491618 4.17706107107e-13 2.48527042688e-12)
(0.326311931189 3.40124343401e-13 2.38509331136e-12)
(0.30036553278 2.69652862434e-13 2.25274705581e-12)
(0.270837435662 2.06782135069e-13 2.08316574652e-12)
(0.237605924835 1.52046009405e-13 1.87321055047e-12)
(0.201272897681 1.05947376707e-13 1.6251000291e-12)
(0.163236406375 6.86519693403e-14 1.34812809141e-12)
(0.125065797429 3.99689406736e-14 1.05481772027e-12)
(0.087777986701 1.93732250419e-14 7.54854170578e-13)
(0.0517594267322 6.37405476927e-15 4.53364658857e-13)
(0.0170768209576 3.41629676857e-16 1.52732749385e-13)
(0.637791896659 2.21851291976e-13 -2.75426675926e-12)
(0.636933329059 6.49334163499e-13 -2.68698525294e-12)
(0.635342785436 1.04209801002e-12 -2.56546435458e-12)
(0.633137619639 1.39597803838e-12 -2.40024314588e-12)
(0.630421344228 1.70772729453e-12 -2.20112149934e-12)
(0.627281514461 1.97668630186e-12 -1.97650207164e-12)
(0.62378975715 2.20330320623e-12 -1.73358135479e-12)
(0.620003100527 2.3892164498e-12 -1.47833983767e-12)
(0.615965853022 2.53674544933e-12 -1.21566914489e-12)
(0.611711552898 2.64854802192e-12 -9.49541040804e-13)
(0.607264751063 2.72760396962e-12 -6.83211804607e-13)
(0.602642541653 2.77658989338e-12 -4.19210738674e-13)
(0.597855833836 2.79852420707e-12 -1.59654186461e-13)
(0.592910391432 2.79683124408e-12 9.38143451602e-14)
(0.587807675805 2.77487466658e-12 3.39926104476e-13)
(0.582545525275 2.73458606352e-12 5.77632369461e-13)
(0.577118697787 2.67833245337e-12 8.06305025141e-13)
(0.571519296137 2.60865762332e-12 1.02523207944e-12)
(0.565737088168 2.52779255559e-12 1.23411825594e-12)
(0.559759728464 2.43741638009e-12 1.43260808415e-12)
(0.553572883288 2.33937537235e-12 1.62057327808e-12)
(0.547160256644 2.23521595222e-12 1.79775251385e-12)
(0.540503512073 2.12624093707e-12 1.96416917902e-12)
(0.53358208166 2.01404599916e-12 2.11965933328e-12)
(0.526372850204 1.89922775641e-12 2.26414813856e-12)
(0.518849697978 1.7832637656e-12 2.39756073026e-12)
(0.510982879156 1.66675140096e-12 2.51980990343e-12)
(0.502738204057 1.55038789241e-12 2.6307417107e-12)
(0.494075980539 1.43499762649e-12 2.73009513079e-12)
(0.48494965195 1.32119492692e-12 2.81757585191e-12)
(0.475304043844 1.20949595306e-12 2.89281268665e-12)
(0.465073096761 1.10032005983e-12 2.95537007243e-12)
(0.454176914451 9.94319158644e-13 3.00460604148e-12)
(0.442517892759 8.91746952542e-13 3.03976209842e-12)
(0.429975612856 7.93011600552e-13 3.05982608297e-12)
(0.416400091941 6.98463725161e-13 3.0635167082e-12)
(0.401602923676 6.08414016268e-13 3.04915637297e-12)
(0.385345936211 5.23182752808e-13 3.01454203054e-12)
(0.367327619913 4.43122812823e-13 2.95682964101e-12)
(0.34716974977 3.68583641491e-13 2.87228576301e-12)
(0.324412920216 2.99959973322e-13 2.75616302198e-12)
(0.298545451483 2.37672232426e-13 2.60278142211e-12)
(0.269120111928 1.82158640321e-13 2.40633309447e-12)
(0.236030720057 1.33923352018e-13 2.16332135586e-12)
(0.199891373711 9.33036095197e-14 1.87643992542e-12)
(0.162094606524 6.04394103082e-14 1.55649927004e-12)
(0.12418649748 3.51899091217e-14 1.21786418742e-12)
(0.0871620573218 1.7054492211e-14 8.71587804149e-13)
(0.0513977686224 5.60374708635e-15 5.23515121714e-13)
(0.0169581570782 2.96853329653e-16 1.76380375906e-13)
(0.634382217065 1.94748936601e-13 -3.07408525045e-12)
(0.633518084747 5.70196770963e-13 -2.99881967643e-12)
(0.631916481128 9.15180177393e-13 -2.86284666923e-12)
(0.629694666914 1.22563335939e-12 -2.67790645373e-12)
(0.626956353681 1.49869308683e-12 -2.45479938052e-12)
(0.623789768979 1.73374078957e-12 -2.20313130075e-12)
(0.620267659583 1.93111099473e-12 -1.9309533755e-12)
(0.616448499174 2.09225370063e-12 -1.64504340996e-12)
(0.612378225894 2.21926377854e-12 -1.35093481524e-12)
(0.608092067355 2.3145436257e-12 -1.05314757246e-12)
(0.603616224507 2.38079034673e-12 -7.55409152114e-13)
(0.598969326808 2.42066365628e-12 -4.60586834016e-13)
(0.594163647256 2.43695514804e-12 -1.70825198491e-13)
(0.589206099709 2.43255821737e-12 1.11987448494e-13)
(0.584099051456 2.41007393385e-12 3.86343040841e-13)
(0.578840983076 2.37195883865e-12 6.5088184891e-13)
(0.573427022038 2.32034089644e-12 9.05171939609e-13)
(0.56784936939 2.25725657631e-12 1.14841270928e-12)
(0.562097631879 2.18465992707e-12 1.38037942176e-12)
(0.556159065563 2.10426781468e-12 1.60052680505e-12)
(0.550018731606 2.01755007309e-12 1.80901598753e-12)
(0.543659560419 1.92597247084e-12 2.00534596476e-12)
(0.537062316486 1.83041959973e-12 2.18979062594e-12)
(0.530205452722 1.73221592123e-12 2.36194946504e-12)
(0.523064839615 1.63236670853e-12 2.52204650613e-12)
(0.515613350058 1.53152355004e-12 2.66986642085e-12)
(0.507820274941 1.43049161654e-12 2.80524108603e-12)
(0.499650536205 1.32988751609e-12 2.92810244379e-12)
(0.491063652122 1.2301962784e-12 3.03810994694e-12)
(0.482012392227 1.13187453841e-12 3.13507981058e-12)
(0.472441034965 1.03564964779e-12 3.21846332236e-12)
(0.462283106762 9.41771484018e-13 3.28779396903e-12)
(0.451458434063 8.50577708771e-13 3.34237361895e-12)
(0.439869276571 7.62444924637e-13 3.38130890672e-12)
(0.427395229982 6.77663607036e-13 3.40348382646e-12)
(0.41388649901 5.96517641196e-13 3.40743529456e-12)
(0.399155086873 5.19253332631e-13 3.39128375582e-12)
(0.38296355627 4.46190457975e-13 3.35256434749e-12)
(0.365011668657 3.77633283185e-13 3.28809065886e-12)
(0.34492343612 3.13846231115e-13 3.19367556936e-12)
(0.322243502799 2.55192714003e-13 3.06404295249e-12)
(0.296467564179 2.0200620121e-13 2.8928753811e-12)
(0.26716103404 1.54688495143e-13 2.67381185026e-12)
(0.234235337605 1.13631452503e-13 2.40309267641e-12)
(0.198318083473 7.91342631775e-14 2.08391555527e-12)
(0.160795095559 5.12816977411e-14 1.72836899813e-12)
(0.123186017379 2.98625066487e-14 1.35230247581e-12)
(0.0864612946335 1.44798190047e-14 9.67828106694e-13)
(0.0509863012124 4.76500840567e-15 5.8134792825e-13)
(0.0168231499652 2.56438731983e-16 1.95874582449e-13)
(0.630679234283 1.66607480179e-13 -3.33879638404e-12)
(0.629809694235 4.87380175305e-13 -3.25691934811e-12)
(0.628197184242 7.81788766383e-13 -3.1085923458e-12)
(0.625958640202 1.04662574321e-12 -2.90693433946e-12)
(0.623197723696 1.27904933823e-12 -2.66358012712e-12)
(0.620003111143 1.47848706485e-12 -2.38905112783e-12)
(0.616448499258 1.64518868234e-12 -2.09209965736e-12)
(0.612593703279 1.78038184743e-12 -1.78024121861e-12)
(0.608486255238 1.88592782958e-12 -1.45955587318e-12)
(0.60416310043 1.96386645063e-12 -1.13507724901e-12)
(0.599652176101 2.01670152018e-12 -8.108118879e-13)
(0.594973784301 2.04691687998e-12 -4.89982197009e-13)
(0.590141742939 2.05685529252e-12 -1.75060655149e-13)
(0.585164333095 2.04907114101e-12 1.31811149867e-13)
(0.58004507256 2.02603861801e-12 4.29127255836e-13)
(0.5747833462 1.98993183274e-12 7.15695767992e-13)
(0.56937491923 1.94266862368e-12 9.90741380385e-13)
(0.563812353101 1.88610347954e-12 1.25357872011e-12)
(0.558085336887 1.82186121399e-12 1.50387184364e-12)
(0.552180940659 1.75153746208e-12 1.74134409707e-12)
(0.546083791478 1.67624604759e-12 1.96583981272e-12)
(0.539776167448 1.59725360806e-12 2.17731370579e-12)
(0.533238000707 1.51543507128e-12 2.37564688649e-12)
(0.526446776033 1.43197996216e-12 2.56087881144e-12)
(0.51937730763 1.34754809783e-12 2.73293126457e-12)
(0.512001372115 1.26254418379e-12 2.89177552238e-12)
(0.504287169961 1.17781638782e-12 3.03727044494e-12)
(0.49619857977 1.0936149133e-12 3.16925763188e-12)
(0.487694158411 1.01060132122e-12 3.2874730638e-12)
(0.478725823653 9.29030139065e-13 3.39160439331e-12)
(0.469237132403 8.49086148358e-13 3.48121978431e-12)
(0.459161034283 7.71328285477e-13 3.55566630416e-12)
(0.448416934097 6.95982514378e-13 3.61424281188e-12)
(0.436906834692 6.23235696553e-13 3.65594675609e-12)
(0.424510253723 5.53373370664e-13 3.67957506719e-12)
(0.411077523858 4.86599102964e-13 3.68348932008e-12)
(0.396421038569 4.23100166768e-13 3.66566523476e-12)
(0.380304129362 3.63149118648e-13 3.62340201567e-12)
(0.362427943079 3.0693987849e-13 3.55323137591e-12)
(0.34241897626 2.54694105053e-13 3.45060957693e-12)
(0.319826404783 2.06750395033e-13 3.30981271367e-12)
(0.294154184874 1.63408395517e-13 3.12405148064e-12)
(0.264981833619 1.24960210169e-13 2.88651911714e-12)
(0.232240207812 9.16682158081e-14 2.59336412368e-12)
(0.1965714297 6.37798890151e-14 2.24826746104e-12)
(0.159353354955 4.12951997136e-14 1.8643673461e-12)
(0.122076371819 2.40415841746e-14 1.45863736887e-12)
(0.0856841311103 1.16551069265e-14 1.04395215573e-12)
(0.0505299764838 3.83468845479e-15 6.27107390893e-13)
(0.0166734242875 2.05545266655e-16 2.11311485153e-13)
(0.62672166421 1.37233281574e-13 -3.55089949386e-12)
(0.625847356227 4.01761367221e-13 -3.46391579117e-12)
(0.624224980315 6.44467482037e-13 -3.30533209057e-12)
(0.621970831955 8.62264297385e-13 -3.09001901584e-12)
(0.619188185203 1.0528848952e-12 -2.82997540363e-12)
(0.615965850949 1.21579247448e-12 -2.53659846032e-12)
(0.612378215662 1.35106726532e-12 -2.21911398172e-12)
(0.608486246028 1.45966813237e-12 -1.88577829185e-12)
(0.604338952082 1.54318291485e-12 -1.54308800284e-12)
(0.599974952538 1.60342722128e-12 -1.19657909447e-12)
(0.595423942874 1.64255641911e-12 -8.50493622337e-13)
(0.5907079797 1.66273300373e-12 -5.0842632183e-13)
(0.585842561635 1.66598378817e-12 -1.73070979746e-13)
(0.580837520217 1.6545942988e-12 1.53364113717e-13)
(0.575697747331 1.63076811144e-12 4.69221757533e-13)
(0.570423787795 1.59652973072e-12 7.7303122006e-13)
(0.565012322474 1.55344005062e-12 1.06439974217e-12)
(0.559456561887 1.50309957296e-12 1.3423782284e-12)
(0.553746564023 1.44709904944e-12 1.60680310966e-12)
(0.547869483863 1.38663526168e-12 1.85728970405e-12)
(0.541809756104 1.32284453222e-12 2.09369216193e-12)
(0.53554920691 1.25666610876e-12 2.31624337819e-12)
(0.529067085228 1.18868952394e-12 2.52466767763e-12)
(0.522339999158 1.11992975906e-12 2.71930124573e-12)
(0.515341737932 1.05098032981e-12 2.89991314996e-12)
(0.508042954798 9.82170503351e-13 3.06651123552e-12)
(0.500410679993 9.13957059808e-13 3.21905036378e-12)
(0.492407625078 8.46671279896e-13 3.35736713881e-12)
(0.483991228956 7.80581992432e-13 3.48124496651e-12)
(0.475112380229 7.1597949231e-13 3.5902520173e-12)
(0.465713727975 6.53076083764e-13 3.68402103688e-12)
(0.455727460871 5.92047688811e-13 3.76188420806e-12)
(0.445072389687 5.33123177604e-13 3.82303014295e-12)
(0.433650107838 4.76462398606e-13 3.86642580091e-12)
(0.42133992904 4.22169973745e-13 3.89073837031e-12)
(0.407992221394 3.70399884339e-13 3.89425919367e-12)
(0.393419717852 3.21345924882e-13 3.87478031667e-12)
(0.377386523422 2.75154726561e-13 3.82944524998e-12)
(0.359595256391 2.32015539738e-13 3.7545261066e-12)
(0.339675115945 1.91992955319e-13 3.64521883736e-12)
(0.317180255685 1.55430153681e-13 3.49546491611e-12)
(0.291623719769 1.22472486227e-13 3.29811895242e-12)
(0.262600470603 9.3370400905e-14 3.04609764596e-12)
(0.230062398951 6.83397171011e-14 2.73557044333e-12)
(0.194666860145 4.74508467806e-14 2.37069621458e-12)
(0.15778241415 3.06913074938e-14 1.96545103168e-12)
(0.120867681929 1.78547977563e-14 1.53758126459e-12)
(0.0848376713798 8.65182719379e-15 1.10043637644e-12)
(0.0500329664891 2.84507843451e-15 6.61050667425e-13)
(0.0165103487855 1.52044892649e-16 2.22759330578e-13)
(0.62253762113 1.07520158498e-13 -3.71438031502e-12)
(0.621659633232 3.15079480507e-13 -3.62281813497e-12)
(0.620029264823 5.05206562605e-13 -3.45640072592e-12)
(0.617761791299 6.75281335233e-13 -3.23023162384e-12)
(0.614959693357 8.23635972035e-13 -2.95687496525e-12)
(0.61171152894 9.49662094347e-13 -2.64835084239e-12)
(0.608092038426 1.0532912446e-12 -2.31439933502e-12)
(0.604163074495 1.13516265854e-12 -1.96378922931e-12)
(0.599974936701 1.19662079022e-12 -1.60334686816e-12)
(0.595567804594 1.23911778003e-12 -1.2390675325e-12)
(0.590973090577 1.26452466906e-12 -8.75537083441e-13)
(0.586214630213 1.27464610841e-12 -5.16573479078e-13)
(0.581309687437 1.2712425297e-12 -1.651217228e-13)
(0.576269783744 1.25620490897e-12 1.76547987073e-13)
(0.571101373977 1.2311966802e-12 5.06639338898e-13)
(0.565806394755 1.19856959702e-12 8.23820201801e-13)
(0.560382709667 1.15956540755e-12 1.12733194708e-12)
(0.554824471054 1.1153166332e-12 1.41645613684e-12)
(0.549122412795 1.06724628606e-12 1.69089536124e-12)
(0.543264082826 1.01615863196e-12 1.9504761469e-12)
(0.537234018294 9.63481175451e-13 2.19515472486e-12)
(0.531013860498 9.09646356724e-13 2.42499637737e-12)
(0.524582400954 8.55324472304e-13 2.64004737249e-12)
(0.517915544172 8.01375963693e-13 2.84045941826e-12)
(0.510986166829 7.47658495629e-13 3.0262322322e-12)
(0.503763846796 6.94780918853e-13 3.19748705899e-12)
(0.49621442849 6.43177366914e-13 3.35410181267e-12)
(0.488299382563 5.92801952252e-13 3.49603069374e-12)
(0.479974906851 5.43836215866e-13 3.62299043533e-12)
(0.471190700169 4.96494958101e-13 3.73470181672e-12)
(0.461888318771 4.50814053481e-13 3.83062063384e-12)
(0.451998994356 4.06834581088e-13 3.91015892865e-12)
(0.441440749162 3.64715939735e-13 3.97243075684e-12)
(0.430114585441 3.24465702747e-13 4.0163761159e-12)
(0.417899453918 2.86181988334e-13 4.04055937176e-12)
(0.404645630972 2.49915273673e-13 4.04321263983e-12)
(0.390166104117 2.15730343312e-13 4.02195638289e-12)
(0.37422572406 1.83737599763e-13 3.97387598627e-12)
(0.356528635975 1.53994835116e-13 3.89501110739e-12)
(0.336706929902 1.26624614055e-13 3.78038860212e-12)
(0.31432014917 1.01830310007e-13 3.62370266903e-12)
(0.288891201668 7.96765275064e-14 3.41757465497e-12)
(0.260031734996 6.03379837971e-14 3.1548275026e-12)
(0.227716074332 4.38939508295e-14 2.83173001254e-12)
(0.192617265018 3.03243922302e-14 2.45293304257e-12)
(0.156093176662 1.95438096151e-14 2.03302132826e-12)
(0.119568425432 1.13465252671e-14 1.59019516672e-12)
(0.0839278671815 5.48620201874e-15 1.13801279722e-12)
(0.0494987660223 1.80006883402e-15 6.83602412263e-13)
(0.0163350699513 9.53360033481e-17 2.30355276175e-13)
(0.618146720125 7.78086604065e-14 -3.83242774539e-12)
(0.61726652604 2.28100463024e-13 -3.73755672783e-12)
(0.615630766889 3.65490557498e-13 -3.56528781142e-12)
(0.613353279296 4.87928800309e-13 -3.33087193348e-12)
(0.610535301205 5.94056750883e-13 -3.04739513116e-12)
(0.607264698507 6.83307950588e-13 -2.72732853773e-12)
(0.603616170726 7.55436227858e-13 -2.38063947828e-12)
(0.599652127911 8.10865030717e-13 -2.01660784727e-12)
(0.595423906335 8.50558772236e-13 -1.64245668232e-12)
(0.590973070554 8.75566245869e-13 -1.2644713149e-12)
(0.586332647735 8.87465072413e-13 -8.87441956799e-13)
(0.581528219027 8.87667226007e-13 -5.15521279332e-13)
(0.576578844213 8.776430283e-13 -1.51805189114e-13)
(0.571497824675 8.59001816619e-13 2.01217074503e-13)
(0.566293323224 8.33259910733e-13 5.41773605678e-13)
(0.560968863712 8.02227231485e-13 8.68773121157e-13)
(0.555523732671 7.66882863467e-13 1.18069921693e-12)
(0.549953302096 7.28290224608e-13 1.47735305952e-12)
(0.544249288039 6.87791885216e-13 1.75825144753e-12)
(0.538399954811 6.46120748294e-13 2.02339852478e-12)
(0.532390269235 6.04141385797e-13 2.27285060811e-12)
(0.526202003921 5.62362643951e-13 2.50660318703e-12)
(0.519813782631 5.21132597846e-13 2.7249790923e-12)
(0.513201054623 4.81062992347e-13 2.92802608552e-12)
(0.506335978172 4.42479740916e-13 3.11592663323e-12)
(0.499187186258 4.05393087296e-13 3.28891780437e-12)
(0.491719399244 3.69962332736e-13 3.44688963511e-12)
(0.483892839895 3.36249856493e-13 3.58978909276e-12)
(0.475662394224 3.042483375e-13 3.71745129324e-12)
(0.466976446048 2.73965414307e-13 3.82960677511e-12)
(0.457775291713 2.45368126573e-13 3.9256784145e-12)
(0.44798901141 2.18444586131e-13 4.00511284774e-12)
(0.437534631838 1.93151310397e-13 4.06699799762e-12)
(0.42631235901 1.69453657302e-13 4.11023339882e-12)
(0.414200590849 1.47282753905e-13 4.13336636251e-12)
(0.40104935 1.26531147697e-13 4.1345352203e-12)
(0.386671757417 1.07422902514e-13 4.11132972936e-12)
(0.370833346255 8.99245173646e-14 4.06066529724e-12)
(0.353239810485 7.39118199323e-14 3.97851910113e-12)
(0.333526287365 5.95213606365e-14 3.85977150453e-12)
(0.311258088502 4.67603322571e-14 3.69797553971e-12)
(0.285968714476 3.57064673308e-14 3.48566172229e-12)
(0.257287645908 2.63789433721e-14 3.21564994108e-12)
(0.225212856834 1.87487802371e-14 2.88446982258e-12)
(0.190433295137 1.26987458947e-14 2.49721850892e-12)
(0.154294681953 8.05382091084e-15 2.06891005738e-12)
(0.118185637826 4.62532194557e-15 1.61788258174e-12)
(0.0829596580997 2.22006574572e-15 1.15766407699e-12)
(0.0489302751922 7.23994118997e-16 6.95340621871e-13)