/*--------------------------------*- C++ -*----------------------------------*\
| =========                 |                                                 |
| \\      /  F ield         | OpenFOAM: The Open Source CFD Toolbox           |
|  \\    /   O peration     | Version:  3.0.1                                 |
|   \\  /    A nd           | Web:      www.OpenFOAM.org                      |
|    \\/     M anipulation  |                                                 |
\*---------------------------------------------------------------------------*/
FoamFile
{
    version     2.0;
    format      ascii;
    class       volVectorField;
    location    "50000";
    object      wallShearStress;
}
// * * * * * * * * * * * * * * * * * * * * * * * * * * * * * * * * * * * * * //

dimensions      [0 2 -2 0 0 0 0];

internalField   uniform (0 0 0);

boundaryField
{
    side_walls
    {
        type            calculated;
        value           nonuniform List<vector> 
100
(
(-0.00137269445683 -1.50270519444e-16 -1.58119302112e-15)
(-0.00137030270417 -1.46173597052e-16 -4.61148822511e-15)
(-0.00136582031982 -1.39294654805e-16 -7.39737102157e-15)
(-0.00135949972088 -1.29262470729e-16 -9.89918533171e-15)
(-0.00135155364843 -1.17574414483e-16 -1.20882939692e-14)
(-0.00134216193556 -1.03143779481e-16 -1.39599271826e-14)
(-0.00133147672919 -8.79798746396e-17 -1.55028332442e-14)
(-0.00131962661455 -7.07951939661e-17 -1.67246417545e-14)
(-0.00130671992131 -5.24552771737e-17 -1.76307178973e-14)
(-0.00129284738915 -3.31075911408e-17 -1.82319304929e-14)
(-0.0012780843114 -1.31728558867e-17 -1.85435123569e-14)
(-0.00126249224033 7.64114122169e-18 -1.85832127849e-14)
(-0.00124612031816 2.81366009064e-17 -1.8371169807e-14)
(-0.00122900628575 4.95036781866e-17 -1.7928164238e-14)
(-0.00121117721474 7.02909378687e-17 -1.72751248204e-14)
(-0.00119265000545 9.09992610002e-17 -1.64363634372e-14)
(-0.00117343169209 1.1061617991e-16 -1.54354691993e-14)
(-0.00115351959787 1.29745250068e-16 -1.42975942372e-14)
(-0.00113290138606 1.47103106791e-16 -1.30467875197e-14)
(-0.00111155505774 1.63313795903e-16 -1.17100566101e-14)
(-0.00108944895593 1.77391883176e-16 -1.0310415827e-14)
(-0.00106654184615 1.89123846381e-16 -8.87425976043e-15)
(-0.00104278315961 1.98138246871e-16 -7.42690634377e-15)
(-0.00101811350436 2.04347499211e-16 -5.9918810009e-15)
(-0.000992465574512 2.06758852891e-16 -4.59326155378e-15)
(-0.000965765613478 2.05661993067e-16 -3.25415770274e-15)
(-0.000937935612156 2.00452684205e-16 -1.99537360058e-15)
(-0.000908896436149 1.90865223609e-16 -8.37142872199e-16)
(-0.000878572064663 1.76824559415e-16 2.03189862813e-16)
(-0.000846895065965 1.58325904738e-16 1.11061951138e-15)
(-0.000813813305625 1.35619538808e-16 1.87366415579e-15)
(-0.000779297659798 1.09226583124e-16 2.48431068438e-15)
(-0.000743350175318 7.95696816969e-17 2.93952340805e-15)
(-0.000706011703822 4.76686094319e-17 3.24049200165e-15)
(-0.000667367615799 1.47509562227e-17 3.39381664902e-15)
(-0.000627549919099 -1.77925083068e-17 3.41118112791e-15)
(-0.000586734166338 -4.86788262502e-17 3.3084779414e-15)
(-0.000545130121506 -7.64994907927e-17 3.10514468531e-15)
(-0.000502966314044 -1.00190964439e-16 2.82293215497e-15)
(-0.000460470114781 -1.18897993416e-16 2.48425939866e-15)
(-0.000417846294812 -1.32055481002e-16 2.11118776273e-15)
(-0.000375257509809 -1.39420828914e-16 1.72417768753e-15)
(-0.000332809327082 -1.40621591459e-16 1.34187180567e-15)
(-0.000290540317202 -1.35300378185e-16 9.81198349738e-16)
(-0.000248414801137 -1.22920317029e-16 6.57426027059e-16)
(-0.000206312168129 -1.02787673063e-16 3.84422672307e-16)
(-0.000164000266061 -7.45364155455e-17 1.74494135886e-16)
(-0.000121062230433 -3.90440023329e-17 3.72528038347e-17)
(-7.66817534742e-05 -6.18566511089e-19 -2.30555534959e-17)
(-2.89467914661e-05 2.46942441904e-17 -9.2598410982e-18)
(-0.00137269419189 1.58008727409e-15 1.50048750282e-16)
(-0.00137030245193 4.60835588253e-15 1.45800567307e-16)
(-0.00136582009087 7.39261122164e-15 1.39159553319e-16)
(-0.00135949952427 9.89430742668e-15 1.29359427355e-16)
(-0.00135155349159 1.20836240956e-14 1.17475198138e-16)
(-0.00134216182414 1.3955218498e-14 1.03657919692e-16)
(-0.00133147666701 1.54995232125e-14 8.79477297021e-17)
(-0.00131962660351 1.67212778382e-14 7.07836741332e-17)
(-0.00130671996146 1.76278533177e-14 5.26066057476e-17)
(-0.00129284747882 1.82296829473e-14 3.31603548682e-17)
(-0.00127808444741 1.85415311246e-14 1.31747080318e-17)
(-0.00126249241828 1.8581862982e-14 -7.58723054598e-18)
(-0.00124612053263 1.836971889e-14 -2.82452807698e-17)
(-0.00122900653067 1.79269082723e-14 -4.93898856588e-17)
(-0.00121117748364 1.72740089093e-14 -7.02505368098e-17)
(-0.00119265029174 1.64354243388e-14 -9.09164749395e-17)
(-0.00117343198926 1.54350196907e-14 -1.10567368879e-16)
(-0.00115351989976 1.429729911e-14 -1.29577064e-16)
(-0.00113290168694 1.30463571632e-14 -1.47146531664e-16)
(-0.00111155535249 1.1709569493e-14 -1.63188216162e-16)
(-0.00108944924013 1.03102309773e-14 -1.7719797645e-16)
(-0.00106654211613 8.87440712266e-15 -1.89037586239e-16)
(-0.00104278341243 7.42715993281e-15 -1.9806193306e-16)
(-0.00101811373789 5.99235737375e-15 -2.04321040752e-16)
(-0.000992465787342 4.59373325936e-15 -2.06812732371e-16)
(-0.000965765804876 3.25454114636e-15 -2.05738487292e-16)
(-0.00093793578201 1.99576133363e-15 -2.00468311047e-16)
(-0.000908896584895 8.37512418425e-16 -1.90928954738e-16)
(-0.000878572193188 -2.02824185059e-16 -1.7691406279e-16)
(-0.000846895175494 -1.11036082635e-15 -1.58480306938e-16)
(-0.000813813397656 -1.87352273695e-15 -1.35725821917e-16)
(-0.000779297736023 -2.48419891411e-15 -1.09260917576e-16)
(-0.000743350237501 -2.93941527441e-15 -7.96349153958e-17)
(-0.000706011753757 -3.24043259403e-15 -4.77227507425e-17)
(-0.000667367655238 -3.39377926676e-15 -1.47899468611e-17)
(-0.000627549949705 -3.41114164206e-15 1.78251179186e-17)
(-0.000586734189646 -3.30844343909e-15 4.86784016645e-17)
(-0.000545130138894 -3.10511806836e-15 7.64944665014e-17)
(-0.000502966326725 -2.82291011395e-15 1.00190973782e-16)
(-0.000460470123796 -2.48425328546e-15 1.18896196637e-16)
(-0.000417846301034 -2.11118805782e-15 1.32054202193e-16)
(-0.000375257513954 -1.72417523149e-15 1.39405607416e-16)
(-0.000332809329728 -1.34186825007e-15 1.40614771085e-16)
(-0.000290540318799 -9.81199740172e-16 1.3527515221e-16)
(-0.000248414802034 -6.57435134752e-16 1.22914523527e-16)
(-0.000206312168584 -3.84424998587e-16 1.02776221624e-16)
(-0.000164000266258 -1.74496294402e-16 7.45309332547e-17)
(-0.000121062230498 -3.7254362256e-17 3.90414516103e-17)
(-7.66817534863e-05 2.30553323659e-17 6.1702644253e-19)
(-2.89467914661e-05 9.25943777232e-18 -2.46943794183e-17)
)
;
    }
    inlet
    {
        type            cyclic;
    }
    outlet
    {
        type            cyclic;
    }
    side_left
    {
        type            symmetryPlane;
    }
    side_bottom
    {
        type            symmetryPlane;
    }
}


// ************************************************************************* //
