/*--------------------------------*- C++ -*----------------------------------*\
| =========                 |                                                 |
| \\      /  F ield         | OpenFOAM: The Open Source CFD Toolbox           |
|  \\    /   O peration     | Version:  3.0.1                                 |
|   \\  /    A nd           | Web:      www.OpenFOAM.org                      |
|    \\/     M anipulation  |                                                 |
\*---------------------------------------------------------------------------*/
FoamFile
{
    version     2.0;
    format      ascii;
    class       volVectorField;
    location    "50000";
    object      grad(p);
}
// * * * * * * * * * * * * * * * * * * * * * * * * * * * * * * * * * * * * * //

dimensions      [0 1 -2 0 0 0 0];

internalField   nonuniform List<vector> 
2500
(
(0 -5.54737083833e-14 -4.95952098395e-14)
(0 -7.51196881442e-14 -3.38918121387e-15)
(-2.62905589504e-28 -2.11784823999e-14 9.34811093917e-15)
(0 -2.77415585536e-15 -3.53256665685e-16)
(0 -2.59007008214e-14 -9.13396145418e-15)
(-3.02708286213e-28 -5.06390583435e-14 -7.93392137692e-15)
(0 -7.03010881821e-14 -5.4757326859e-15)
(0 -9.89430027827e-14 -7.59052398417e-17)
(0 -1.12101124224e-13 1.48363922715e-15)
(0 -1.17083585839e-13 3.73837699068e-15)
(0 -1.13099319873e-13 7.0169643221e-15)
(0 -1.10153491193e-13 6.11624904047e-15)
(-4.20611799807e-28 -9.92438603116e-14 8.0686733113e-15)
(0 -8.68058657749e-14 6.10161971693e-15)
(0 -7.06425698952e-14 5.15624850214e-15)
(0 -4.77510619341e-14 3.22621187191e-15)
(0 -2.29275080568e-14 4.18279311871e-15)
(0 1.19650153586e-14 3.46432464307e-15)
(0 4.09976523039e-14 2.9603377161e-15)
(0 7.1609722949e-14 3.70147768847e-15)
(0 1.05829224075e-13 4.13060177542e-15)
(0 1.40269459751e-13 3.82904990014e-15)
(0 1.77085811633e-13 3.54130019842e-15)
(0 2.1217370879e-13 6.84806733706e-16)
(0 2.45928431848e-13 3.98946448086e-16)
(0 2.82076988057e-13 -1.67356281569e-15)
(0 3.15407541665e-13 -3.23993652253e-15)
(0 3.48849196793e-13 -4.04097814335e-15)
(0 3.83664152082e-13 -4.87849804818e-15)
(0 4.16833671722e-13 -6.28456141499e-15)
(0 4.47987258302e-13 -7.77663290492e-15)
(0 4.7781007835e-13 -9.04137733155e-15)
(0 5.05279829126e-13 -1.04991013921e-14)
(0 5.29189433378e-13 -1.19250778997e-14)
(0 5.5157089097e-13 -1.29973127366e-14)
(0 5.70919312198e-13 -1.423351037e-14)
(0 5.85146725301e-13 -1.55455580502e-14)
(0 5.93550041338e-13 -1.66407769524e-14)
(0 5.95047324794e-13 -1.7796341664e-14)
(0 5.89085035651e-13 -1.87848761268e-14)
(0 5.7237348309e-13 -1.98408646364e-14)
(0 5.40888571341e-13 -2.09080552204e-14)
(0 4.89684328575e-13 -2.19625732478e-14)
(0 4.14141621104e-13 -2.27404670123e-14)
(0 3.16318091226e-13 -2.33804684365e-14)
(0 2.15489704809e-13 -2.38266743788e-14)
(0 1.42730692026e-13 -2.40867733048e-14)
(0 1.14445234364e-13 -2.4266293301e-14)
(0 1.09985562091e-13 -2.44218786668e-14)
(0 5.41417508741e-14 -2.45732755887e-14)
(0 -9.26767975774e-15 -5.99262257464e-14)
(0 -1.55635363195e-14 -9.71298197589e-15)
(0 -1.84857106482e-14 5.24440606099e-15)
(0 -2.35415703992e-14 -2.36975191965e-15)
(0 -3.4562564384e-14 -1.35666084466e-14)
(-1.58636265298e-28 -4.60816060199e-14 -9.57540271071e-15)
(0 -6.00332227748e-14 -1.01993004663e-14)
(3.48536928077e-28 -8.96174101551e-14 -3.76015338736e-15)
(0 -1.06650460305e-13 3.56961361928e-15)
(-3.82882155009e-28 -1.0879540732e-13 9.33512584147e-15)
(0 -1.09535842461e-13 1.46919410134e-14)
(-4.20611799801e-28 -1.08320619067e-13 1.46318559924e-14)
(-4.40848751758e-28 -9.94270885793e-14 1.93202828997e-14)
(0 -9.20044232913e-14 1.55042346812e-14)
(0 -7.61103271585e-14 1.4812970731e-14)
(0 -4.95416513645e-14 1.2567992568e-14)
(0 -2.25156164999e-14 1.47294183228e-14)
(0 9.32081784134e-15 1.46519255083e-14)
(0 4.16041115585e-14 1.44336651001e-14)
(0 7.4384487174e-14 1.39698594959e-14)
(0 1.06105331404e-13 1.14081825192e-14)
(0 1.3872567836e-13 1.11691591378e-14)
(0 1.68282067808e-13 1.00257698664e-14)
(-3.69614853549e-28 2.03299464838e-13 5.94489674607e-15)
(0 2.38684329839e-13 2.6012177059e-15)
(0 2.70604262717e-13 3.92962678841e-16)
(0 3.07618361424e-13 -4.51836228227e-15)
(0 3.43152461878e-13 -6.51424806583e-15)
(1.16877318938e-28 3.75444296058e-13 -9.24576947711e-15)
(6.12503265283e-29 4.05763005052e-13 -1.33032970177e-14)
(0 4.36978803607e-13 -1.73684379752e-14)
(0 4.6637460151e-13 -2.23039246904e-14)
(0 4.92608713982e-13 -2.6666760804e-14)
(0 5.17719330105e-13 -3.0837313599e-14)
(0 5.40406512642e-13 -3.49672272066e-14)
(0 5.58014660098e-13 -3.89154025166e-14)
(0 5.72405419609e-13 -4.298934034e-14)
(-7.13614558322e-28 5.81029444987e-13 -4.67547719841e-14)
(0 5.82577069225e-13 -5.03533855171e-14)
(0 5.76589277467e-13 -5.37426166742e-14)
(0 5.58781501805e-13 -5.69899705505e-14)
(0 5.26656265213e-13 -6.00820582706e-14)
(9.02619096936e-28 4.76845102745e-13 -6.28465214967e-14)
(0 4.03715623547e-13 -6.52075813014e-14)
(0 3.07962760182e-13 -6.70079258282e-14)
(0 2.09806690395e-13 -6.82492113228e-14)
(0 1.39016249489e-13 -6.89989436504e-14)
(0 1.11469792029e-13 -6.94949585407e-14)
(0 1.07124800158e-13 -6.99406410261e-14)
(0 5.26972796916e-14 -7.03527620749e-14)
(0 -5.44441391524e-15 -8.56548431339e-15)
(0 -9.52017459313e-15 -4.02836437816e-15)
(0 -1.40779829435e-14 -2.31487470133e-15)
(0 -2.40081806683e-14 1.14032214675e-16)
(0 -3.40030711759e-14 -2.38919212825e-15)
(0 -4.65873099633e-14 5.95116659762e-16)
(-3.48536928083e-28 -6.24380731568e-14 -1.24054854476e-15)
(0 -8.06531716928e-14 4.07752645015e-15)
(0 -9.41226054103e-14 1.04194013427e-14)
(0 -1.00890578077e-13 1.47585338578e-14)
(0 -1.05226065376e-13 1.94077215265e-14)
(0 -1.02660248258e-13 2.1784814122e-14)
(0 -9.81503259902e-14 2.51840479298e-14)
(0 -9.46582821597e-14 2.40483798584e-14)
(0 -7.62438752807e-14 2.69278677334e-14)
(0 -4.77956051489e-14 2.78730702096e-14)
(0 -1.88923542323e-14 3.04335851755e-14)
(0 1.12239014675e-14 3.11728414557e-14)
(0 3.95315336937e-14 2.84238503117e-14)
(0 6.47374750425e-14 2.58153983367e-14)
(0 9.9289606953e-14 2.34210769662e-14)
(0 1.36688325779e-13 1.95900061146e-14)
(7.39229707086e-28 1.62807379171e-13 1.53398736578e-14)
(0 1.91416947626e-13 1.1948607369e-14)
(0 2.29686400998e-13 5.68775437155e-15)
(4.25572841908e-28 2.59872181672e-13 9.87746400642e-16)
(-4.46048485133e-28 2.93418072915e-13 -4.38994736054e-15)
(0 3.32857437483e-13 -1.02220971338e-14)
(0 3.59587648793e-13 -1.657484466e-14)
(6.41972717056e-29 3.86741767347e-13 -2.2479362426e-14)
(2.10268761408e-30 4.13046076372e-13 -2.8369816869e-14)
(0 4.4013704476e-13 -3.50120522005e-14)
(0 4.68932985881e-13 -4.12069707957e-14)
(0 4.92185027034e-13 -4.76743867815e-14)
(3.24801016103e-28 5.13865138243e-13 -5.43331585253e-14)
(0 5.31579578349e-13 -6.11040744362e-14)
(0 5.44926650901e-13 -6.74037728869e-14)
(0 5.53936626568e-13 -7.4043615824e-14)
(0 5.55654907525e-13 -8.01016598081e-14)
(0 5.49861157305e-13 -8.6030926545e-14)
(0 5.33056299516e-13 -9.14984016719e-14)
(0 5.02797201216e-13 -9.643157203e-14)
(-9.46046930638e-28 4.54771972112e-13 -1.00744723659e-13)
(0 3.8449400915e-13 -1.04535203439e-13)
(0 2.93614556591e-13 -1.07434810661e-13)
(0 1.99938247041e-13 -1.09427304299e-13)
(0 1.32522574591e-13 -1.10671547601e-13)
(0 1.06327653484e-13 -1.11460557321e-13)
(0 1.02231906703e-13 -1.12173376248e-13)
(-1.31452794742e-27 5.03239127145e-14 -1.12823032786e-13)
(0 -4.96204255008e-15 7.85948548314e-15)
(0 -9.52115391837e-15 5.30786227215e-15)
(0 -1.42196363421e-14 8.43534390406e-15)
(0 -2.37577453169e-14 8.66864870905e-15)
(0 -3.38821574424e-14 9.72576876595e-15)
(0 -4.49400106057e-14 1.03204102814e-14)
(0 -5.58393789911e-14 1.1424646717e-14)
(0 -7.47665437501e-14 1.4925477669e-14)
(0 -9.23013842593e-14 2.0043267468e-14)
(0 -9.62200772888e-14 2.48916268786e-14)
(0 -9.9416103696e-14 2.90610190959e-14)
(0 -9.94102556998e-14 3.45255064441e-14)
(0 -9.59967363086e-14 3.77065456634e-14)
(0 -8.91147357752e-14 4.18812877016e-14)
(0 -6.96268341169e-14 4.59596062944e-14)
(0 -4.30836488254e-14 4.9217535533e-14)
(0 -1.62053642254e-14 5.16945168615e-14)
(0 5.27262838916e-15 4.95308680996e-14)
(0 3.04137423056e-14 4.34011071143e-14)
(0 6.30866791603e-14 3.96270210965e-14)
(0 9.1543680368e-14 3.69118085914e-14)
(0 1.19326895075e-13 2.96672017644e-14)
(0 1.48971597131e-13 2.20613868659e-14)
(0 1.7727793095e-13 1.78179157207e-14)
(0 2.08259984898e-13 1.06231094876e-14)
(0 2.41047934801e-13 2.22219772112e-15)
(0 2.73103563909e-13 -3.5614405584e-15)
(0 3.0409852481e-13 -1.18381135358e-14)
(0 3.34114315585e-13 -2.12792843408e-14)
(0 3.6390522074e-13 -2.9107557222e-14)
(0 3.90171343232e-13 -3.78894179932e-14)
(0 4.16207449388e-13 -4.6442982273e-14)
(0 4.4083519696e-13 -5.56160626262e-14)
(0 4.61484660374e-13 -6.47286326278e-14)
(0 4.80150623583e-13 -7.35760667105e-14)
(0 4.96640424605e-13 -8.26356812544e-14)
(-3.73974395604e-28 5.08629582937e-13 -9.12996144921e-14)
(0 5.15596076083e-13 -9.99534883715e-14)
(0 5.17775670087e-13 -1.08134011256e-13)
(0 5.12065070146e-13 -1.15880138069e-13)
(0 4.97071827885e-13 -1.23148505175e-13)
(0 4.6918187825e-13 -1.29694507164e-13)
(0 4.24039752499e-13 -1.35658254217e-13)
(0 3.58090629518e-13 -1.40521655357e-13)
(0 2.73054301983e-13 -1.44410655944e-13)
(0 1.85628516337e-13 -1.47077203849e-13)
(1.19661239552e-27 1.23094738877e-13 -1.48731297616e-13)
(0 9.90890771474e-14 -1.49811308776e-13)
(0 9.53511307714e-14 -1.50772677575e-13)
(0 4.69459904871e-14 -1.51658591759e-13)
(0 -7.63838466777e-15 2.21500085117e-14)
(0 -8.88939249763e-15 2.38450827997e-14)
(0 -1.1014949585e-14 2.114103457e-14)
(0 -2.27169694368e-14 2.09289752241e-14)
(0 -3.23171490492e-14 2.17592427769e-14)
(0 -4.46753907335e-14 2.23967947325e-14)
(0 -5.68912734375e-14 2.28077362951e-14)
(0 -7.01759971236e-14 2.25168587806e-14)
(0 -8.17304193614e-14 2.91307297604e-14)
(0 -8.9016297619e-14 3.53350247026e-14)
(0 -9.18390706529e-14 3.86051782816e-14)
(0 -9.02854767246e-14 4.2081464923e-14)
(0 -8.70463636024e-14 4.69178322988e-14)
(0 -8.15066734863e-14 5.57725951571e-14)
(0 -6.3952386543e-14 6.37841593495e-14)
(0 -3.77629809828e-14 6.48196359539e-14)
(0 -1.84012806418e-14 6.43998420704e-14)
(0 -4.86959690969e-15 6.02692585239e-14)
(0 1.9641068815e-14 5.69732659292e-14)
(0 5.12656622753e-14 5.01334796362e-14)
(0 7.70704660156e-14 4.3064632104e-14)
(0 1.02065439885e-13 3.6187183741e-14)
(-4.06037123311e-28 1.34088290152e-13 2.97504184346e-14)
(4.25572841904e-28 1.61989669612e-13 2.27137479098e-14)
(0 1.87750289553e-13 1.49091306723e-14)
(-4.67509275753e-28 2.20208719839e-13 8.16107483342e-15)
(-4.90002612245e-28 2.51831508791e-13 -1.1645650698e-15)
(0 2.77983190122e-13 -1.09410871869e-14)
(0 3.03912306495e-13 -2.17253261569e-14)
(0 3.30550964301e-13 -3.18097178895e-14)
(0 3.51776638568e-13 -4.39939074643e-14)
(0 3.74424468453e-13 -5.43916203103e-14)
(0 3.97847389876e-13 -6.6183405867e-14)
(-1.7021410548e-28 4.18943986571e-13 -7.75534724095e-14)
(0 4.37204728374e-13 -8.89193578322e-14)
(0 4.52118322776e-13 -1.00049023775e-13)
(0 4.63484472103e-13 -1.11239033481e-13)
(0 4.70948963756e-13 -1.21781293815e-13)
(0 4.73369412245e-13 -1.320057813e-13)
(0 4.68547672241e-13 -1.4154093293e-13)
(0 4.54700969147e-13 -1.50539129129e-13)
(0 4.28442690506e-13 -1.58777086328e-13)
(5.19635737784e-28 3.87396741869e-13 -1.66099832223e-13)
(0 3.27405079801e-13 -1.72162115978e-13)
(0 2.48882974086e-13 -1.77004376384e-13)
(0 1.69067269425e-13 -1.80263290666e-13)
(0 1.12038864577e-13 -1.82298301273e-13)
(0 9.02480929647e-14 -1.83649084256e-13)
(-6.88887003542e-28 8.69743608369e-14 -1.84860359322e-13)
(0 4.28277869479e-14 -1.85960080166e-13)
(3.02708286213e-28 -3.6802877019e-15 3.8432993276e-14)
(0 -1.04360387957e-14 4.33704750282e-14)
(0 -1.66140606019e-14 3.39137916201e-14)
(0 -2.31108517158e-14 3.18597621787e-14)
(0 -3.23806100057e-14 3.37395418149e-14)
(0 -4.38595981518e-14 3.42196998533e-14)
(0 -5.57764933723e-14 3.50139769197e-14)
(0 -6.7260177193e-14 3.64856685412e-14)
(0 -7.67136510567e-14 3.99759708611e-14)
(0 -8.42658229237e-14 4.37556929868e-14)
(0 -9.03234600787e-14 4.65631022484e-14)
(-5.07591224567e-28 -8.76627236791e-14 5.14395356911e-14)
(-5.32013029257e-28 -7.5970142628e-14 5.54556062085e-14)
(0 -6.36408753645e-14 5.94954971113e-14)
(5.84438200707e-28 -5.54807395014e-14 6.50506062965e-14)
(0 -4.18867140387e-14 6.4971966503e-14)
(0 -2.42696354028e-14 6.30489631938e-14)
(0 -8.52393907945e-15 6.07646985579e-14)
(0 1.06422190208e-14 6.06200884598e-14)
(0 3.5034034462e-14 5.61609811329e-14)
(0 6.19881174581e-14 4.90556522743e-14)
(-4.06037123326e-28 8.96388793497e-14 4.31421669268e-14)
(0 1.17584376149e-13 3.63367711965e-14)
(0 1.41121737691e-13 2.7878415247e-14)
(0 1.70987235122e-13 1.93809935478e-14)
(4.90002612251e-28 1.97801493304e-13 9.86365100277e-15)
(0 2.19619906531e-13 -1.53020437878e-15)
(0 2.4362868413e-13 -1.39739011641e-14)
(0 2.697970881e-13 -2.5689282414e-14)
(1.47832886582e-28 2.91779204217e-13 -3.88331844044e-14)
(-1.54945590085e-28 3.13681310556e-13 -5.06485216606e-14)
(0 3.37070422836e-13 -6.27537347561e-14)
(0 3.54541620403e-13 -7.54347663343e-14)
(0 3.72743030688e-13 -8.82740700976e-14)
(0 3.88198344334e-13 -1.01359793282e-13)
(0 4.00994835993e-13 -1.14404837537e-13)
(0 4.11106783814e-13 -1.27323126716e-13)
(0 4.17915831239e-13 -1.3959153682e-13)
(0 4.20410143635e-13 -1.51628489936e-13)
(0 4.16341509142e-13 -1.63034979709e-13)
(0 4.03799688509e-13 -1.73802911597e-13)
(0 3.80925126216e-13 -1.83721363316e-13)
(0 3.44539052688e-13 -1.92440445796e-13)
(-1.14168247346e-27 2.90262047119e-13 -1.9993986358e-13)
(1.19661239562e-27 2.20327850483e-13 -2.05626258848e-13)
(0 1.49544825253e-13 -2.09597182504e-13)
(0 9.88924557995e-14 -2.12029284436e-13)
(0 7.98250511309e-14 -2.1364185826e-13)
(7.22031516354e-28 7.71353653759e-14 -2.15088312572e-13)
(0 3.80625058008e-14 -2.16412538283e-13)
(0 -3.55309570336e-15 5.5645276915e-14)
(0 -1.28930085119e-14 5.4482914838e-14)
(8.71342320208e-29 -2.08921344023e-14 5.18046412199e-14)
(0 -2.28078383692e-14 4.92269993137e-14)
(0 -3.01507856039e-14 4.62337045207e-14)
(0 -4.33855484849e-14 4.6025038998e-14)
(0 -5.45033236054e-14 4.58152943688e-14)
(0 -6.46654077843e-14 4.71887605427e-14)
(0 -7.33139316395e-14 4.96685421994e-14)
(0 -8.10583138385e-14 5.31387216733e-14)
(0 -8.22135541557e-14 5.75515888906e-14)
(0 -7.86729478859e-14 6.39784714551e-14)
(0 -7.56003544177e-14 6.60988442917e-14)
(0 -6.69829675228e-14 6.44705556207e-14)
(0 -5.55933620107e-14 6.27540049808e-14)
(0 -4.11488497902e-14 6.47374489842e-14)
(0 -2.55775284616e-14 6.4188017301e-14)
(0 -9.12183170792e-15 6.44787376113e-14)
(0 1.0759839421e-14 6.24320260534e-14)
(0 2.85883271457e-14 6.03678311495e-14)
(0 5.06934079684e-14 5.41738855613e-14)
(0 7.50946266952e-14 4.86813622909e-14)
(-4.46048485128e-28 1.00093880201e-13 4.07346583257e-14)
(0 1.22430258541e-13 3.40386922149e-14)
(0 1.43940350639e-13 2.30870289724e-14)
(0 1.66775152091e-13 1.05072681107e-14)
(0 1.87807078616e-13 -9.65592396508e-16)
(0 2.10082567562e-13 -1.34522219272e-14)
(-2.95665773181e-28 2.30669562623e-13 -2.4776739365e-14)
(-3.09891180174e-28 2.53539677561e-13 -4.00129813559e-14)
(0 2.74342048416e-13 -5.30520457726e-14)
(0 2.90490082896e-13 -6.75339368918e-14)
(0 3.07167175736e-13 -8.23482320026e-14)
(0 3.22382163154e-13 -9.71405323968e-14)
(0 3.35210649708e-13 -1.12164231828e-13)
(0 3.45906022148e-13 -1.26857704598e-13)
(2.15296199283e-28 3.55525592695e-13 -1.41291911104e-13)
(0 3.61711870298e-13 -1.55049717269e-13)
(0 3.63010844157e-13 -1.69101272337e-13)
(0 3.59159065349e-13 -1.81870462371e-13)
(0 3.47779967685e-13 -1.94100250809e-13)
(0 3.275559809e-13 -2.05232744275e-13)
(0 2.95425628663e-13 -2.15346236865e-13)
(0 2.49117844688e-13 -2.23798253587e-13)
(-6.27092584172e-28 1.88840180824e-13 -2.30239154499e-13)
(0 1.27417242133e-13 -2.34667918327e-13)
(0 8.44292711218e-14 -2.37407064032e-13)
(0 6.82869842051e-14 -2.39237587608e-13)
(0 6.61239884578e-14 -2.40903547619e-13)
(0 3.26202454589e-14 -2.42443249072e-13)
(4.15671883025e-29 -4.55123268416e-15 6.85906135391e-14)
(-4.35671160097e-29 -1.3543063186e-14 6.590360583e-14)
(0 -2.1063842574e-14 6.78684197635e-14)
(0 -2.78325969418e-14 6.64645666709e-14)
(0 -3.50679093966e-14 5.97226861735e-14)
(0 -4.42279013747e-14 5.72545684278e-14)
(0 -5.45446993487e-14 5.57656920552e-14)
(0 -6.31685076413e-14 5.60349852435e-14)
(0 -7.01463619099e-14 5.75172814206e-14)
(0 -7.5225493813e-14 6.04177417119e-14)
(0 -7.71143091175e-14 6.52431919967e-14)
(0 -7.68121730785e-14 6.76053167125e-14)
(0 -7.54298438299e-14 6.91687284095e-14)
(0 -6.83380726906e-14 7.28695214129e-14)
(0 -5.49824631093e-14 7.2842818106e-14)
(0 -3.98029194702e-14 7.2281902033e-14)
(0 -2.47032245802e-14 7.12550046268e-14)
(0 -1.15182669849e-14 7.18389149006e-14)
(0 3.58778050129e-15 6.89863689621e-14)
(0 1.97006217033e-14 6.58440709772e-14)
(-4.25572841881e-28 3.94555558357e-14 6.17884580154e-14)
(-4.46048485141e-28 6.22859622777e-14 5.54211803581e-14)
(-4.67509275724e-28 8.64988001184e-14 4.52407236335e-14)
(4.90002612234e-28 1.01716390111e-13 3.68818369342e-14)
(0 1.16089915313e-13 2.51664247034e-14)
(0 1.39049672789e-13 1.33070854651e-14)
(0 1.58182092638e-13 9.5022364464e-16)
(0 1.79748403638e-13 -1.17036026121e-14)
(3.09891180186e-28 1.94779934062e-13 -2.55254102052e-14)
(-1.62400508047e-28 2.08756251668e-13 -3.87654203347e-14)
(-1.70214105475e-28 2.28716366829e-13 -5.47556070925e-14)
(0 2.42239226421e-13 -6.96226076275e-14)
(0 2.54212711885e-13 -8.57144216195e-14)
(0 2.66806192147e-13 -1.02377874718e-13)
(0 2.77563181472e-13 -1.19449700649e-13)
(0 2.87301135548e-13 -1.35509525434e-13)
(0 2.95824730164e-13 -1.51693666568e-13)
(-2.36511732651e-28 2.98690416891e-13 -1.67281100006e-13)
(2.47891053363e-28 3.00025563923e-13 -1.82529625446e-13)
(0 2.98613416556e-13 -1.97028256046e-13)
(0 2.88552720066e-13 -2.10505423415e-13)
(-2.85420618393e-28 2.71079070524e-13 -2.23029089731e-13)
(0 2.44018689971e-13 -2.33847305334e-13)
(0 2.0584222322e-13 -2.43217444077e-13)
(0 1.5582308148e-13 -2.50404622671e-13)
(-3.44443501741e-28 1.04996417402e-13 -2.55293683712e-13)
(0 6.91150750481e-14 -2.58313122714e-13)
(-3.78385357761e-28 5.58638238055e-14 -2.60370175463e-13)
(0 5.41095874317e-14 -2.62244249138e-13)
(0 2.67316706691e-14 -2.6397752179e-13)
(0 -5.53271565746e-15 7.48106143192e-14)
(0 -1.33745671733e-14 7.42690387565e-14)
(0 -2.05278261651e-14 7.4441853214e-14)
(0 -2.97350003888e-14 7.2707915121e-14)
(0 -3.81067027129e-14 6.94400706739e-14)
(0 -4.69231260762e-14 6.62813445593e-14)
(0 -5.56036129757e-14 6.35923343534e-14)
(0 -6.28574657064e-14 6.31108887941e-14)
(0 -6.86462191564e-14 6.32205645108e-14)
(0 -7.24495948208e-14 6.44217003839e-14)
(0 -7.39587805443e-14 6.68447621156e-14)
(0 -7.39810766441e-14 6.92740882469e-14)
(0 -6.90248461433e-14 7.26841825085e-14)
(0 -6.23996065206e-14 7.69620874045e-14)
(0 -5.63801102213e-14 7.64752433122e-14)
(0 -4.33619763303e-14 7.69435356648e-14)
(0 -2.61416232994e-14 7.30746829372e-14)
(0 -1.29042182875e-14 7.34305346903e-14)
(0 5.97830221383e-16 7.11653953716e-14)
(0 1.57834496321e-14 6.78400972773e-14)
(0 3.13207858899e-14 6.60058287692e-14)
(0 4.31222954198e-14 5.68020850555e-14)
(-4.90002612232e-28 6.28994632563e-14 5.05800440371e-14)
(0 7.97166277133e-14 3.91441877752e-14)
(0 9.14508062868e-14 3.01235726549e-14)
(0 1.10348265187e-13 1.99900129737e-14)
(0 1.26754949607e-13 5.77821059656e-15)
(0 1.42411197735e-13 -7.5459151559e-15)
(0 1.58125567902e-13 -2.29954071111e-14)
(0 1.71004289624e-13 -3.71021499826e-14)
(-1.78403639569e-28 1.83473097397e-13 -5.32742077423e-14)
(0 1.94756234468e-13 -7.02871307599e-14)
(0 2.01084007769e-13 -8.70164270786e-14)
(0 2.07955261322e-13 -1.0468489295e-13)
(-5.38240498253e-29 2.17519428134e-13 -1.22535117909e-13)
(0 2.25771439316e-13 -1.40301784888e-13)
(0 2.31557983967e-13 -1.57750700086e-13)
(-1.23945526688e-28 2.35478317782e-13 -1.75074671861e-13)
(0 2.3545094897e-13 -1.91255286309e-13)
(0 2.33526446807e-13 -2.07254088398e-13)
(0 2.25387626054e-13 -2.2214358348e-13)
(0 2.12455501571e-13 -2.35854527941e-13)
(-3.13546292082e-28 1.91072900677e-13 -2.47776629541e-13)
(0 1.59582041628e-13 -2.57900164956e-13)
(-1.72221750886e-28 1.20489584362e-13 -2.65694967153e-13)
(0 8.05631256901e-14 -2.70971760945e-13)
(0 5.28617683895e-14 -2.74248338394e-13)
(0 4.2581398103e-14 -2.76495628996e-13)
(0 4.13933846383e-14 -2.78549986796e-13)
(0 2.04484365938e-14 -2.80476311844e-13)
(0 -4.96815942712e-15 8.20104725534e-14)
(-2.39301346881e-29 -1.37828286023e-14 8.31742876241e-14)
(0 -2.22227952287e-14 8.09577409741e-14)
(0 -3.18114281282e-14 7.94923817839e-14)
(0 -4.04084312631e-14 7.51553862437e-14)
(0 -4.9304515895e-14 7.25420721157e-14)
(0 -5.73670032377e-14 6.91416661203e-14)
(0 -6.34878473197e-14 6.8459144805e-14)
(0 -6.87717215931e-14 6.73935471785e-14)
(0 -7.1357288793e-14 6.66462564935e-14)
(0 -7.17610985531e-14 6.7575264358e-14)
(0 -7.00871313987e-14 6.92933218747e-14)
(0 -6.60469144722e-14 7.1898410676e-14)
(0 -6.3518713374e-14 7.26197758806e-14)
(-3.52647859769e-28 -5.50415882299e-14 7.38343940033e-14)
(3.69614853564e-28 -4.47212292191e-14 7.60835892681e-14)
(0 -2.96267628628e-14 7.4130060422e-14)
(0 -1.45211936146e-14 7.34827910703e-14)
(-4.25572841918e-28 -5.3270282477e-15 7.14673487748e-14)
(-4.46048485128e-28 1.11250367846e-14 6.81751153806e-14)
(0 1.98306938816e-14 6.35496000271e-14)
(-4.90002612267e-28 3.37691510055e-14 5.85759776584e-14)
(0 5.18748671804e-14 5.25497350344e-14)
(0 6.03732964114e-14 4.46094207306e-14)
(-2.82093376685e-28 7.52120629734e-14 3.68010353701e-14)
(0 8.46465792458e-14 2.49144238263e-14)
(0 9.41020869914e-14 1.37293330001e-14)
(0 1.09261406427e-13 -1.31827400722e-15)
(0 1.19261968792e-13 -1.58715523231e-14)
(1.78403639576e-28 1.27531670069e-13 -3.31478331237e-14)
(0 1.35418380343e-13 -5.01595989693e-14)
(0 1.42921036692e-13 -6.93724967323e-14)
(-2.05413129831e-28 1.47896635166e-13 -8.76628738054e-14)
(0 1.51740195102e-13 -1.06125626791e-13)
(0 1.56731314935e-13 -1.23620323973e-13)
(0 1.62133679679e-13 -1.42934287908e-13)
(0 1.6624114413e-13 -1.60584597286e-13)
(0 1.67995278402e-13 -1.79408883723e-13)
(-8.50995377687e-30 1.68330872537e-13 -1.96969098947e-13)
(0 1.662071605e-13 -2.13928960345e-13)
(0 1.60070661968e-13 -2.29778100771e-13)
(0 1.50499107213e-13 -2.44143691012e-13)
(0 1.35349512692e-13 -2.57112140299e-13)
(0 1.13318080789e-13 -2.67733005705e-13)
(0 8.51821326587e-14 -2.76029780596e-13)
(0 5.65855312044e-14 -2.81545239581e-13)
(0 3.6323693399e-14 -2.85056584747e-13)
(0 2.9011235645e-14 -2.87463123793e-13)
(0 2.80650806054e-14 -2.89724330226e-13)
(0 1.3823336314e-14 -2.91837442601e-13)
(0 -4.74435148489e-15 8.65709221649e-14)
(0 -1.41528489291e-14 8.89683333294e-14)
(0 -2.31822201247e-14 8.63720440838e-14)
(0 -3.41563636374e-14 8.67454249297e-14)
(0 -4.35499077149e-14 7.88746068335e-14)
(0 -5.19162619363e-14 7.88589785087e-14)
(0 -5.90950599437e-14 7.23211438568e-14)
(0 -6.44491921771e-14 7.07423016511e-14)
(0 -7.03349785259e-14 6.78934791784e-14)
(0 -7.21834318304e-14 6.69593819651e-14)
(0 -7.11281704864e-14 6.66514674116e-14)
(0 -6.91398110672e-14 6.73516585013e-14)
(0 -6.51957718039e-14 6.63845486151e-14)
(-3.52647859745e-28 -6.01546097983e-14 6.7639035151e-14)
(0 -5.20079674308e-14 7.12089428032e-14)
(3.87398182588e-28 -4.31692812166e-14 7.15845247414e-14)
(0 -2.9790800213e-14 7.50865654031e-14)
(0 -1.68130089359e-14 7.24146892178e-14)
(0 -7.63465810788e-15 7.15535991339e-14)
(0 3.14411213354e-15 6.87869779804e-14)
(0 1.50532338157e-14 6.44432169475e-14)
(5.13578173671e-28 2.3761824538e-14 6.37014718599e-14)
(-5.38288029215e-28 3.71755844594e-14 5.68300246471e-14)
(0 4.91264348969e-14 4.89853772048e-14)
(0 5.15761185628e-14 4.05324218382e-14)
(0 6.13917891514e-14 2.84583351442e-14)
(3.24801016105e-28 6.80822297361e-14 1.67302430658e-14)
(0 7.35302577483e-14 3.36660787067e-15)
(0 8.02435207451e-14 -1.24697538969e-14)
(0 8.32766748095e-14 -3.00322249388e-14)
(0 8.61823785275e-14 -4.71354941714e-14)
(0 8.94060946331e-14 -6.62265865154e-14)
(0 9.28034694193e-14 -8.52988040338e-14)
(0 9.69256645036e-14 -1.04053054618e-13)
(0 9.81624571658e-14 -1.23236136761e-13)
(-1.23945526691e-28 1.00430625991e-13 -1.42511457303e-13)
(1.29908934425e-28 1.01720027499e-13 -1.6155158764e-13)
(0 9.99749890186e-14 -1.80369212396e-13)
(0 1.00651326015e-13 -1.9846983098e-13)
(0 9.92741433594e-14 -2.16130640658e-13)
(0 9.58322291523e-14 -2.32532859133e-13)
(0 8.96175579378e-14 -2.47878780108e-13)
(0 8.01012880993e-14 -2.61205696043e-13)
(0 6.63820721573e-14 -2.72405001314e-13)
(-4.72981697231e-29 4.93013491228e-14 -2.81036757005e-13)
(0 3.18333122162e-14 -2.8694940729e-13)
(0 1.93477579037e-14 -2.90665918441e-13)
(5.44588950126e-29 1.47805980888e-14 -2.93252434306e-13)
(0 1.40884531628e-14 -2.95700459829e-13)
(0 6.9361958963e-15 -2.97989147784e-13)
(0 -3.45937133313e-15 8.97621137146e-14)
(-1.0515294995e-28 -1.40022031388e-14 8.88515227853e-14)
(0 -2.37113588716e-14 8.32948594755e-14)
(0 -3.73272047679e-14 8.03346650904e-14)
(0 -4.62289428949e-14 7.74994882514e-14)
(-3.17244515354e-29 -5.46050358123e-14 8.28211338736e-14)
(0 -6.39234653672e-14 7.20644268135e-14)
(0 -6.73145082999e-14 7.08688633239e-14)
(0 -7.21680238686e-14 6.66620526414e-14)
(0 -7.25392993695e-14 6.63606657669e-14)
(0 -7.13256330845e-14 6.45991027588e-14)
(0 -7.03570945943e-14 6.64929459454e-14)
(-1.76323929882e-28 -6.56433786757e-14 6.33071217432e-14)
(0 -5.78758054834e-14 6.25456186417e-14)
(3.87398182581e-28 -5.03387065464e-14 6.19170066732e-14)
(0 -3.97671638657e-14 6.50001155233e-14)
(0 -2.87468551449e-14 6.67368734687e-14)
(0 -1.93650157233e-14 6.68697949104e-14)
(0 -1.06586041938e-14 6.69945788829e-14)
(0 9.91168499404e-17 6.43019229709e-14)
(0 1.17943046213e-14 6.42583483708e-14)
(0 2.06008130948e-14 6.03934502323e-14)
(0 2.58907833709e-14 5.7816227553e-14)
(0 3.04990281303e-14 4.95665110289e-14)
(0 3.52447192136e-14 4.20922635373e-14)
(0 3.65348217078e-14 3.25656477515e-14)
(-3.40428210969e-28 4.0831198188e-14 2.01152836791e-14)
(0 4.40733946294e-14 7.87028524076e-15)
(0 4.13469578133e-14 -7.06999303126e-15)
(-1.9598373795e-28 4.28133628358e-14 -2.37540078873e-14)
(0 4.25265678265e-14 -4.09156388154e-14)
(0 4.04349352725e-14 -5.91997859116e-14)
(0 4.14700371466e-14 -7.82683116385e-14)
(4.73023465282e-28 3.99578105526e-14 -9.77340539723e-14)
(0 3.79707541019e-14 -1.18108649404e-13)
(0 3.81211663887e-14 -1.37593678205e-13)
(0 3.77853454171e-14 -1.57790947926e-13)
(0 3.6645971877e-14 -1.77091902271e-13)
(0 3.50172584183e-14 -1.95919462651e-13)
(0 3.32198265648e-14 -2.13842149211e-13)
(0 3.01991019425e-14 -2.3105655611e-13)
(-1.72221750884e-28 2.76658786597e-14 -2.46747792651e-13)
(0 2.52358014736e-14 -2.60687757736e-13)
(0 2.00866104044e-14 -2.72344184848e-13)
(0 1.36188449029e-14 -2.81275209093e-13)
(0 6.98109406833e-15 -2.87412954397e-13)
(2.17835580048e-28 2.25349061618e-15 -2.91261829281e-13)
(0 3.87692595557e-16 -2.93995716359e-13)
(0 -1.54319933707e-16 -2.96604148235e-13)
(0 -1.41687438637e-16 -2.99050131246e-13)
(-2.10305899904e-28 -5.22840721288e-15 8.58855847366e-14)
(-1.10212187939e-28 -1.81621969905e-14 8.17670685357e-14)
(0 -2.86190391172e-14 7.5507060184e-14)
(0 -3.81879983665e-14 7.01051102365e-14)
(0 -4.17897463395e-14 7.17208901043e-14)
(-6.65016286571e-29 -5.63236899933e-14 7.23758226883e-14)
(0 -6.83758365397e-14 6.59618618506e-14)
(0 -6.90118840786e-14 6.30532249028e-14)
(0 -7.41668247965e-14 6.32966002208e-14)
(0 -7.40650732854e-14 6.57237620009e-14)
(0 -7.09338752923e-14 5.93357608998e-14)
(0 -7.05746068726e-14 5.76313368176e-14)
(0 -6.92002845887e-14 5.78503867618e-14)
(0 -6.15386998838e-14 5.68412942154e-14)
(-2.03018561658e-28 -4.90720195691e-14 5.68465411324e-14)
(0 -3.73673245874e-14 5.6761022462e-14)
(-2.23024242566e-28 -2.74788453259e-14 5.92446467375e-14)
(0 -1.65966036824e-14 6.0533323643e-14)
(2.45001306129e-28 -1.13494766395e-14 6.14541753534e-14)
(0 -8.00559984625e-16 6.20061998488e-14)
(0 8.94072446085e-15 6.08812199978e-14)
(0 1.35940776775e-14 5.79441389272e-14)
(0 1.8700972478e-14 5.41191474688e-14)
(0 2.13018868964e-14 4.93084277828e-14)
(0 2.01416712279e-14 4.36437376464e-14)
(-3.40428210981e-28 1.86641594146e-14 3.51514698157e-14)
(-3.56807279158e-28 1.8014542399e-14 2.57545780192e-14)
(0 1.57116059355e-14 1.34678048292e-14)
(1.95983737963e-28 9.68188974531e-15 -6.40092522636e-16)
(0 4.34494635708e-15 -1.50813848624e-14)
(2.15296199299e-28 -4.58251716628e-16 -3.21616481558e-14)
(0 -6.29956652201e-15 -4.93372682485e-14)
(0 -1.05804378602e-14 -6.81988215659e-14)
(0 -1.51987324726e-14 -8.82015258241e-14)
(0 -1.93126512619e-14 -1.08265184503e-13)
(0 -2.22392546188e-14 -1.28800382732e-13)
(2.85420618361e-28 -2.60870910946e-14 -1.49285145327e-13)
(0 -2.93042073667e-14 -1.69537122458e-13)
(0 -2.99893441716e-14 -1.88955136614e-13)
(3.28631986881e-28 -3.16680454258e-14 -2.07567734714e-13)
(0 -3.26536620511e-14 -2.25044853314e-13)
(0 -3.16139960968e-14 -2.41064889985e-13)
(0 -2.95288778e-14 -2.55303994792e-13)
(0 -2.59473290608e-14 -2.67475147703e-13)
(0 -2.14508993472e-14 -2.76647416522e-13)
(-4.35671160101e-28 -1.7266202346e-14 -2.82863411998e-13)
(0 -1.461708163e-14 -2.867953585e-13)
(0 -1.42005303344e-14 -2.89629194834e-13)
(-2.50814884695e-28 -1.46430002548e-14 -2.92376000717e-13)
(0 -7.30602661019e-15 -2.94976603905e-13)
(0 -5.88395862464e-15 7.57791234519e-14)
(0 -2.02697793939e-14 7.36649740518e-14)
(0 -3.10463936368e-14 7.01407823411e-14)
(0 -3.96846924194e-14 6.71427695262e-14)
(0 -4.45169114563e-14 6.29300467025e-14)
(0 -5.88502568336e-14 5.21408795597e-14)
(0 -7.09379048389e-14 5.61189434821e-14)
(0 -6.93940317203e-14 5.39716739064e-14)
(0 -7.00561142273e-14 5.41130480454e-14)
(0 -7.61461408385e-14 5.41391631727e-14)
(0 -7.84072353782e-14 5.04935987404e-14)
(0 -7.17096189675e-14 4.71799494356e-14)
(0 -6.66067547328e-14 4.99736967051e-14)
(0 -5.90475420898e-14 5.01182509945e-14)
(0 -5.03690062994e-14 5.23829571178e-14)
(-2.23024242564e-28 -3.68913126002e-14 5.1871717876e-14)
(0 -2.42738483879e-14 5.34062379471e-14)
(0 -1.65180231917e-14 5.28406538473e-14)
(0 -8.79374912672e-15 5.38141137757e-14)
(0 -7.73511673107e-16 5.5806713292e-14)