/*--------------------------------*- C++ -*----------------------------------*\
| =========                 |                                                 |
| \\      /  F ield         | OpenFOAM: The Open Source CFD Toolbox           |
|  \\    /   O peration     | Version:  3.0.1                                 |
|   \\  /    A nd           | Web:      www.OpenFOAM.org                      |
|    \\/     M anipulation  |                                                 |
\*---------------------------------------------------------------------------*/
FoamFile
{
    version     2.0;
    format      ascii;
    class       volVectorField;
    location    "50000";
    object      grad(k);
}
// * * * * * * * * * * * * * * * * * * * * * * * * * * * * * * * * * * * * * //

dimensions      [0 1 -2 0 0 0 0];

internalField   nonuniform List<vector> 
2500
(
(0 0.000184069632102 0.000184059902184)
(0 0.000534539012507 0.000184047841687)
(0 0.000844891014689 0.000184021871796)
(0 0.00110959019017 0.000183937023025)
(0 0.00132987254132 0.000183678878827)
(2.08019550322e-17 0.00151114192865 0.000183067439734)
(0 0.00166065519573 0.000181881686316)
(0 0.00178596480486 0.00017989044706)
(0 0.00189405584952 0.000176880574128)
(0 0.00199094948294 0.00017267890923)
(0 0.00208156908236 0.000167167390784)
(0 0.00216973660847 0.000160291667522)
(2.89042227917e-17 0.0022582263292 0.000152063835095)
(0 0.00234884050545 0.000142559999882)
(0 0.00244249158083 0.000131913486228)
(0 0.00253928454192 0.000120304649265)
(0 0.00263859635385 0.000107948393235)
(0 0.00273914971094 9.50805607521e-05)
(0 0.00283907743007 8.19443318508e-05)
(0 0.00293597253281 6.87776469051e-05)
(0 0.00302691775184 5.58024494814e-05)
(0 0.00310848690483 4.32162820876e-05)
(0 0.00317670913627 3.11864838015e-05)
(0 0.00322698506759 1.98469775782e-05)
(0 0.00325394090285 9.29742184808e-06)
(0 0.00325120177989 -3.9564782666e-07)
(0 0.00321105814649 -9.19614214627e-06)
(0 0.00312398714914 -1.70946815958e-05)
(0 0.00297797270815 -2.41042451206e-05)
(0 0.00275753958412 -3.02555814148e-05)
(0 0.00244237260463 -3.55926808169e-05)
(0 0.00200532332408 -4.01685080895e-05)
(0 0.00140949845826 -4.40410996494e-05)
(0 0.000603955668905 -4.72700327111e-05)
(0 -0.000482727661203 -4.99131524909e-05)
(0 -0.00195213011028 -5.20232787375e-05)
(0 -0.00395052397185 -5.36443327112e-05)
(0 -0.00669030653356 -5.48057511235e-05)
(0 -0.01047971336 -5.55128290995e-05)
(0 -0.0157568315242 -5.57279151625e-05)
(0 -0.0231012927305 -5.53313857562e-05)
(0 -0.0331189456379 -5.40394953766e-05)
(0 -0.045876612461 -5.12427394244e-05)
(0 -0.0592458080604 -4.57794050222e-05)
(0 -0.066549473282 -3.61097275209e-05)
(0 -0.0593306135005 -2.246364761e-05)
(0 -0.0387788935464 -9.73591661199e-06)
(0 -0.0173997057096 -2.66402605813e-06)
(0 -0.0037676471049 -4.20423787957e-07)
(0 -0.00227245553905 -4.69860649465e-07)
(0 0.000184057571605 0.000534512652473)
(0 0.000534499732626 0.000534473322143)
(0 0.00084477058544 0.000534403965235)
(0 0.00110919975426 0.000534196632016)
(0 0.00132883743508 0.000533544220178)
(2.18028022853e-17 0.00150890424206 0.000531946260235)
(0 0.00165651558082 0.0005287759323)
(-2.39512753207e-17 0.00177914279147 0.000523367173352)
(0 0.00188375455636 0.000515095662355)
(2.63114613438e-17 0.00197641751388 0.000503443086862)
(0 0.00206215601576 0.000488042456109)
(2.89042227913e-17 0.00214493972224 0.000468705260691)
(3.02948955405e-17 0.00222772653742 0.000445432060905)
(0 0.002312525791 0.000418408322112)
(0 0.00240046680259 0.000387987614035)
(0 0.00249186739498 0.000354664695062)
(0 0.00258630032133 0.00031904141815)
(0 0.00268265587957 0.000281788643724)
(0 0.002779197898 0.000243607359401)
(0 0.00287360867036 0.00020519194363)
(0 0.00296301673221 0.000167197987548)
(0 0.00304399971694 0.000130216396754)
(0 0.00311255277834 9.47547189631e-05)
(2.53997393297e-17 0.00316401091277 6.12258901662e-05)
(0 0.00319291044048 2.99439465594e-05)
(0 0.00319277017698 1.12576951462e-06)
(0 0.00315576542374 -2.51023637363e-05)
(0 0.00307225627848 -4.86947646425e-05)
(-3.21269927988e-17 0.00293011365098 -6.96741548973e-05)
(0 0.00271375817477 -8.81184715288e-05)
(0 0.0024027832538 -0.000104147579232)
(0 0.00196996479167 -0.000117910545984)
(0 0.0013783524119 -0.000129573855025)
(0 0.00057696857439 -0.000139310623044)
(0 -0.000505617256815 -0.000147290538944)
(0 -0.00197095395736 -0.000153669733206)
(0 -0.00396522514347 -0.000158578936027)
(0 -0.00670063467612 -0.000162106575004)
(0 -0.0104850192312 -0.000164269817364)
(0 -0.0157556356888 -0.000164958468285)
(0 -0.0230903506601 -0.000163818855981)
(0 -0.0330912782027 -0.000160009795068)
(3.10137560167e-17 -0.0458180897336 -0.000151723280152)
(0 -0.0591335496871 -0.000135516115187)
(0 -0.0663686472462 -0.000106839742368)
(0 -0.05911725958 -6.64198359405e-05)
(0 -0.0386120059496 -2.8772019529e-05)
(0 -0.0173178620652 -7.87138819317e-06)
(0 -0.00374769530918 -1.24248376289e-06)
(0 -0.00226374568821 -1.39042516774e-06)
(0 0.000184031553581 0.000844854594209)
(0 0.000534430327585 0.000844733951618)
(0 0.000844598820865 0.000844562019729)
(0 0.00110863825748 0.000844247538945)
(0 0.00132726844029 0.000843390914936)
(0 0.00150537339657 0.000841276573078)
(2.39512753211e-17 0.00164979794329 0.000836966237423)
(0 0.00176784471047 0.000829429457694)
(0 0.00186642613628 0.000817669375871)
(0 0.00195166251353 0.000800825764521)
(0 0.00202873260711 0.000778250772219)
(0 0.00210184784508 0.00074955794249)
(0 0.00217427812389 0.000714646466526)
(0 0.00224839448284 0.000673702978246)
(0 0.00232571458741 0.000627183567993)
(0 0.00240694695222 0.000575779261292)
(0 0.00249203362088 0.000520368858457)
(0 0.00258019143096 0.000461963552198)
(0 0.00266995072565 0.000401647988896)
(0 0.00275918832851 0.000340522298058)
(0 0.00284514931097 0.000279649096603)
(0 0.00292444977922 0.000220008624341)
(-2.53997393293e-17 0.00299305055746 0.00016246410688)
(0 0.00304618903113 0.000107738313639)
(0 0.00307825308098 5.64012203295e-05)
(-2.92451430089e-17 0.00308257624583 8.86780494972e-06)
(6.13044369945e-17 0.00305112596268 -3.45956134663e-05)
(0 0.00297404534812 -7.38584424457e-05)
(-3.36727231133e-17 0.0028389911883 -0.000108908320291)
(-3.52928233559e-17 0.0026301829693 -0.00013983097266)
(-7.39817434004e-17 0.00232703418866 -0.000166789051127)
(0 0.00190216886317 -0.000190001199146)
(0 0.00131851888572 -0.000209722145799)
(0 0.000525030156568 -0.000226224114801)
(0 -0.000549752560018 -0.000239779231327)
(0 -0.00200733113164 -0.000250641751604)
(0 -0.00399373001206 -0.000259027484693)
(0 -0.00672079549945 -0.000265084945084)
(0 -0.0104956187957 -0.000268846726216)
(0 -0.0157538987429 -0.000270136222518)
(0 -0.0230701854885 -0.000268375567873)
(0 -0.0330395795189 -0.000262183243535)
(-3.25059250206e-17 -0.0457083523665 -0.000248586511379)
(-3.40698869478e-17 -0.0589229888355 -0.000221933151456)
(0 -0.0660299005951 -0.00017480452962)
(0 -0.0587182821199 -0.000108531521218)
(0 -0.0383003958164 -4.69674956587e-05)
(0 -0.0171651843561 -1.28446849988e-05)
(0 -0.00371050514621 -2.02832222408e-06)
(-1.76432954495e-19 -0.00224747942682 -2.27560421548e-06)
(0 0.000183946556529 0.00110955082097)
(0 0.000534222686452 0.00110915990205)
(0 0.000844284180448 0.00110859781449)
(0 0.00110796165936 0.00110792092528)
(0 0.00132554488073 0.00110678984623)
(0 0.00150145656812 0.00110442726943)
(0 0.00164214897992 0.00109971791122)
(0 0.00175465402728 0.00109136786312)
(0 0.00184575453564 0.00107806634468)
(0 0.00192158353029 0.00105862378107)
(0 0.00198746712113 0.00103207835451)
(0 0.00204788534708 0.000997770656418)
(0 0.00210647971255 0.000955388235427)
(0 0.0021660727978 0.000904982302465)
(0 0.00222868644325 0.000846959148136)
(0 0.00229555570826 0.000782049387429)
(0 0.00236714022215 0.000711258905439)
(0 0.00244313535622 0.000635806168708)
(0 0.00252248442084 0.000557051156223)
(0 0.0026033907581 0.000476421407695)
(0 0.00268332574534 0.000395340499763)
(0 0.00275902564073 0.000315163611027)
(0 0.00282646702846 0.0002371238245)
(0 0.00288080726065 0.000162291543815)
(0 0.00291627237518 9.15480502247e-05)
(0 0.00292596986635 2.55729515582e-05)
(0 0.00290159632001 -3.51557778665e-05)
(0 0.00283299872322 -9.03512264517e-05)
(0 0.00270753080907 -0.000139898909936)
(0 0.00250911840236 -0.00018383263433)
(0 0.0022169046967 -0.000222307233748)
(0 0.00180327864059 -0.000255570162923)
(0 0.00123098306688 -0.000283933372807)
(0 0.000448832535618 -0.000307746209107)
(0 -0.000614685251981 -0.000327369197806)
(0 -0.00206102576117 -0.000343147342354)
(-5.13986495571e-17 -0.00403600548971 -0.000355379474405)
(0 -0.00675097843218 -0.000364276188181)
(0 -0.0105119901062 -0.00036989042805)
(0 -0.015752538323 -0.000371986176177)
(0 -0.0230424784086 -0.000369770110264)
(0 -0.032966989229 -0.000361331979478)
(0 -0.0455534514395 -0.000342554877322)
(0 -0.0586256620818 -0.000305629357747)
(0 -0.0655525317585 -0.000240400844869)
(0 -0.0581576025268 -0.000148983380368)
(2.56970555238e-18 -0.0378635403829 -6.4382356288e-05)
(0 -0.0169514480437 -1.75984086381e-05)
(0 -0.00365850677626 -2.78059006287e-06)
(0 -0.00222466800031 -3.13092211055e-06)
(0 0.000183688134304 0.00132983597916)
(0 0.000533569611114 0.00132880005652)
(0 0.000843426893236 0.00132722991794)
(0 0.00110683030257 0.00132550541864)
(0 0.00132358199428 0.00132354216199)
(0 0.00149754392491 0.00132069131562)
(0 0.00163465919055 0.00131582676127)
(0 0.00174157281692 0.00130751965173)
(0 0.00182483301372 0.00129422817887)
(0 0.00189049815043 0.00127446723276)
(0 0.00194397636902 0.00124694578543)
(0 0.00198997675611 0.00121067006276)
(0 0.00203250177411 0.00116501382019)
(0 0.00207484617398 0.00110975768035)
(0 0.00211958888261 0.00104509961489)
(0 0.00216857574131 0.000971638994496)
(0 0.00222289620423 0.000890337305589)
(0 0.00228285859296 0.000802459528006)
(0 0.00234796770701 0.00070950105349)
(0 0.00241690636717 0.000613105747348)
(-2.53997393293e-17 0.00248751931196 0.000514981097553)
(0 0.00255679417939 0.000416816290258)
(2.79026586493e-17 0.00262083027538 0.000320208438508)
(-5.84902860174e-17 0.00267478149506 0.000226601141187)
(0 0.00271275495199 0.000137238177726)
(6.4253985598e-17 0.00272764104433 5.31336366176e-05)
(3.36727231128e-17 0.00271084289447 -2.49416937482e-05)
(3.52928233562e-17 0.00265186178442 -9.64590845824e-05)
(0 0.00253767794993 -0.000161118113606)
(0 0.00235183914219 -0.000218823251372)
(0 0.00207312694585 -0.000269653768758)
(0 0.00167360387901 -0.000313829724591)
(0 0.00111573875145 -0.00035167626207)
(-4.67880970467e-17 0.000348142547931 -0.000383587651905)
(0 -0.000700806495449 -0.000409991402156)
(0 -0.00213254013961 -0.000431311117034)
(0 -0.00409264288668 -0.000447924031856)
(0 -0.00679187181329 -0.000460103909391)
(0 -0.0105349691514 -0.000467929024039)
(0 -0.0157526608653 -0.000471111035848)
(0 -0.0230088714719 -0.000468648669893)
(0 -0.0328762558982 -0.00045810985396)
(3.57090959938e-17 -0.0453584572715 -0.000434243133559)
(0 -0.0582512046999 -0.000387116900617)
(0 -0.0649529396268 -0.000303972295076)
(0 -0.0574559659766 -0.000187941327736)
(0 -0.0373185837922 -8.10737785064e-05)
(-7.05731818044e-19 -0.0166853256444 -2.2146839337e-05)
(-1.84921696928e-19 -0.00359387087305 -3.50184611861e-06)
(0 -0.00219619870592 -3.9613429415e-06)
(-4.16039100644e-17 0.000183076283969 0.00151111189498)
(0 0.000531970614313 0.00150887304283)
(0 0.000841311335298 0.00150534045913)
(0 0.0011044667821 0.00150142196556)
(0 0.0013207307947 0.00149750818759)
(0 0.00149332751042 0.00149329138177)
(0 0.0016275808598 0.00148782218549)
(0 0.00172962409825 0.00147968762845)
(0 0.00180564303811 0.00146722216439)
(0 0.00186149856017 0.00144870578352)
(0 0.0019025689148 0.00142253166887)
(3.4881403348e-17 0.00193369679961 0.00138733934696)
(3.65596569873e-17 0.00195917245206 0.00134211402077)
(0 0.00198271765514 0.00128625376353)
(-4.01622873371e-17 0.00200745652478 0.0012196061731)
(-4.20946208568e-17 0.00203587078949 0.00114247608459)
(0 0.00206974329165 0.00105560630484)
(0 0.00211009578566 0.000960134088982)
(0 0.00215712710128 0.00085752707797)
(2.53997393288e-17 0.00221015605682 0.000749503470333)
(0 0.00226757058359 0.000637942096469)
(2.79026586504e-17 0.002326780652 0.000524788639357)
(0 0.00238416796477 0.0004119643251)
(0 0.0024350201527 0.00030128294577)
(0 0.00247343129988 0.000194381082213)
(-3.36727231132e-17 0.00249214371227 9.26649824801e-05)
(0 0.00248229715348 -2.72409646777e-06)
(0 0.00243303985586 -9.09259450693e-05)
(0 0.00233093814764 -0.000171360193799)
(-4.06359944412e-17 0.00215909478565 -0.000243710312246)
(4.25911194927e-17 0.0018958441905 -0.000307895957175)
(0 0.0015128267021 -0.000364037004225)
(0 0.000972139669916 -0.000412412316213)
(0 0.000222099847001 -0.00045341555878)
(0 -0.000809098894561 -0.000487509115812)
(0 -0.00222291255451 -0.000515175153041)
(0 -0.00416469729973 -0.000536859424356)
(0 -0.00684454035221 -0.000552896883392)
(0 -0.0105656639085 -0.000563394605421)
(0 -0.0157555147764 -0.000568018160629)
(0 -0.0229709701249 -0.000565564298972)
(0 -0.0327698139058 -0.000553081861955)
(0 -0.0451276587818 -0.000524185204573)
(-1.96139555436e-17 -0.0578077300182 -0.000466842063246)
(1.02788222104e-17 -0.0642451560912 -0.000365821001309)
(0 -0.0566314374409 -0.000225556001295)
(0 -0.036680630879 -9.70963876879e-05)
(0 -0.0163745016605 -2.65040008291e-05)
(9.69094296694e-20 -0.00351853107522 -4.19457072483e-06)
(0 -0.0021628500022 -4.77143321395e-06)
(0 0.000181890001421 0.00166063353492)
(0 0.000528798913793 0.001656492426)
(-2.39512753211e-17 0.000836999273371 0.00164977248195)
(0 0.0010997558451 0.00164212114409)
(0 0.00131586517101 0.001634629453)
(0 0.00148785794078 0.00162754996273)
(0 0.0016203391308 0.00162030786769)
(0 0.00171880455547 0.00161167224704)
(0 0.00178893860616 0.00159998231749)
(0 0.00183626053337 0.00158337084414)
(0 0.00186597565867 0.00155996074733)
(0 0.00188292433061 0.00152802821174)
(0 0.00189156232181 0.00148613224958)
(0 0.00189593736561 0.00143321225147)
(0 0.00189964663037 0.00136865488406)
(-2.20599624987e-17 0.0019057718562 0.00129233127695)
(0 0.00191679546204 0.00120460536607)
(0 0.00193450413044 0.00110631465969)
(0 0.00195988730426 0.000998725537956)
(0 0.00199303725791 0.000883466317586)
(0 0.0020330552148 0.000762442577872)
(0 0.00207796452406 0.000637740392251)
(3.06522184969e-17 0.00212462725831 0.000511523973454)
(0 0.00216865485738 0.000385934596124)
(0 0.0022042966071 0.000262997420391)
(0 0.00222428161649 0.000144541962081)
(0 0.00221957996385 3.21405353003e-05)
(0 0.00217903563682 -7.29327891251e-05)
(8.12719888871e-17 0.00208880561522 -0.000169722054828)
(8.51822389867e-17 0.00193151234624 -0.00025758922548)
(0 0.00168497519086 -0.000336196411837)
(0 0.0013203210612 -0.000405473868443)
(0 0.000799171517473 -0.000465577354447)
(0 6.94424640147e-05 -0.000516838017579)
(0 -0.000940954081289 -0.000559706768117)
(0 -0.00233357343724 -0.000594692841556)
(2.95900843159e-17 -0.00425357747929 -0.000622292156955)
(0 -0.00691034455309 -0.00064289318832)
(0 -0.0106054009203 -0.000656631821011)
(0 -0.0157624650367 -0.000663131651873)
(0 -0.0229303528812 -0.000660991355657)
(0 -0.0326498466886 -0.000646739465134)
(0 -0.0448647172107 -0.000612848482846)
(0 -0.0573021208537 -0.000545196128585)
(-1.07733685623e-17 -0.0634412639345 -0.00042621302845)
(0 -0.0556998071083 -0.000261963460372)
(0 -0.0359630014458 -0.000112501630934)
(0 -0.0160257778362 -3.06833936307e-05)
(0 -0.00343420600634 -4.86114056151e-06)
(0 -0.00212530454181 -5.56545424443e-06)
(-2.28518034363e-17 0.000179898140058 0.00178595197517)
(0 0.000523388513934 0.00177912818309)
(0 0.000829460349519 0.00176782729607)
(0 0.00109140368404 0.00175463360324)
(0 0.00130755637455 0.00174154979296)
(0 0.00147972233522 0.00172959920391)
(0 0.00161170316091 0.00171877860162)
(0 0.00170823944295 0.00170821317494)
(0 0.00177437547352 0.00169639177696)
(0 0.00181513735589 0.00168141181348)
(0 0.0018353988921 0.00166120245774)
(0 0.00183983783837 0.00163371627924)
(0 0.00183291987196 0.00159708832564)
(0 0.00181887523318 0.00154976417271)
(0 0.00180165162278 0.00149059834608)
(0 0.00178483848436 0.00141892374453)
(0 0.00177156464417 0.00133459212466)
(0 0.00176437510776 0.00123798562903)
(0 0.00176509461497 0.00112999979363)
(0 0.00177468582087 0.00101199940933)
(5.84902860142e-17 0.00179310884423 0.000885749908285)
(3.06522184978e-17 0.00181918640115 0.000753328426577)
(6.4253985594e-17 0.00185047473246 0.00061702014195)
(-6.7345446224e-17 0.00188313497011 0.000479206682853)
(0 0.00191179238123 0.000342254094577)
(0 0.0019293618687 0.000208407881591)
(0 0.00192680678466 7.97019357039e-05)
(0 0.00189278354778 -4.21132376008e-05)
(-4.2591119495e-17 0.00181310485292 -0.000155619496577)
(0 0.00166992611978 -0.00025975587845)
(4.67880970454e-17 0.00144051767891 -0.0003538199596)
(0 0.00109542011002 -0.000437448139933)
(0 0.000595678366975 -0.000510578276596)
(0 -0.000111308482662 -0.000573398294209)
(0 -0.00109802737879 -0.000626283571606)
(0 -0.00246623512484 -0.000669723627457)
(0 -0.00436096564323 -0.000704234022728)
(-3.25059250194e-17 -0.00699088584468 -0.000730240195795)
(3.40698869492e-17 -0.0106556923769 -0.000747900900577)
(0 -0.0157749816657 -0.000756798062825)
(0 -0.0228885856412 -0.000755333187561)
(-3.92279110913e-17 -0.0325183406254 -0.000739509213975)
(0 -0.0445727884156 -0.000700642007295)
(-2.15467371215e-17 -0.0567402596969 -0.000622521420865)
(0 -0.0625517333513 -0.000485380933365)
(-5.91749430118e-18 -0.0546749299146 -0.000297284821669)
(0 -0.0351774548787 -0.000127336909908)
(0 -0.0156451708198 -3.46976826773e-05)
(0 -0.00334242081531 -5.50379265784e-06)
(0 -0.00208416067399 -6.34741665466e-06)
(0 0.000176887580578 0.00189405143055)
(0 0.000515115171807 0.00188374813072)
(0 0.000817697817332 0.00186641649741)
(0 0.00107809964773 0.00184574135897)
(0 0.00129426273232 0.00182481664396)
(0 0.00146725528261 0.00180562418576)
(0 0.00160001230037 0.00178891809163)
(0 0.00169641774523 0.0017743540659)
(0 0.00176074799803 0.00176072633781)
(0 0.00179738937877 0.00174622882994)
(0 0.00181072377856 0.00172870124089)
(0 0.00180509666139 0.0017058463116)
(0 0.00178480982153 0.0016754160906)
(0 0.0017541048546 0.00163536872094)
(0 0.00171711987149 0.00158399740964)
(0 0.00167781270525 0.00152003225262)
(0 0.00163985059364 0.00144271455548)
(0 0.00160647046766 0.00135184269268)
(0 0.00158031642735 0.00124778851373)
(0 0.00156326216878 0.00113148384665)
(0 0.00155622611673 0.00100437770357)
(0 0.00155898570728 0.000868366259467)
(3.36727231119e-17 0.00156999443249 0.000725699390171)
(0 0.00158620060011 0.000578869333205)
(0 0.00160285996557 0.000430488583107)
(0 0.00161332515364 0.000283165218695)
(0 0.00160878257793 0.00013938421945)
(0 0.00157789154072 1.40284268157e-06)
(0 0.00150625875988 -0.000128833211165)
(0 0.00137565168236 -0.000249748142537)
(4.9039219036e-17 0.00116281047501 -0.000360166610325)
(0 0.000837652964579 -0.000459316608085)
(0 0.000360565567128 -0.000546806734465)
(0 -0.000321683436625 -0.000622581074034)
(2.95900843185e-17 -0.00128210963401 -0.000686854812888)
(0 -0.00262279764465 -0.000740031800562)
(0 -0.00448875237066 -0.000782600430112)
(-6.81397739023e-17 -0.0070879654049 -0.000814993847925)
(0 -0.0107182146471 -0.000837378643951)
(0 -0.0157946359993 -0.000849289263676)
(0 -0.0228472380124 -0.000848926557078)
(0 -0.03237713145 -0.000831758033688)
(-2.15467371244e-17 -0.0442546221645 -0.000787921584999)
(0 -0.0561272140893 -0.000699115028506)
(-1.18349886035e-17 -0.0615856975844 -0.000543525152844)
(0 -0.0535690136036 -0.000331625723912)
(0 -0.0343343896755 -0.000141644814901)
(0 -0.0152380024419 -3.85584295137e-05)
(0 -0.00324452787492 -6.12459260026e-06)
(0 -0.00203994267518 -7.12111936536e-06)
(0 0.000172685192829 0.00199095257023)
(0 0.00050346065299 0.00197641843015)
(0 0.000800851562743 0.00195165991419)
(0 0.00105865429333 0.00192157698626)
(0 0.00127449927435 0.00189048794176)
(0 0.00144873691656 0.00186148537178)
(0 0.00158339945867 0.00183624518732)
(0 0.00168143701373 0.001815120638)
(0 0.00174625024915 0.00179737195249)
(0 0.0017814542393 0.00178143662029)
(0 0.00179078821635 0.00176519280759)
(0 0.0017780987646 0.00174619778401)
(0 0.00174734531557 0.00172189754091)
(2.31213364328e-17 0.00170259583774 0.00168980896235)
(2.42337763954e-17 0.00164799462624 0.00164767658787)
(-2.53997393308e-17 0.00158769358947 0.00159360493894)
(0 0.00152574468259 0.00152616600603)
(0 0.00146595530312 0.00144448039394)
(2.92451430096e-17 0.00141171125621 0.00134827009034)
(3.06522184968e-17 0.00136577371589 0.00123788086539)
(0 0.00133005753017 0.00111427294371)
(3.36727231143e-17 0.00130539809858 0.000978979769771)
(0 0.00129131260482 0.000834036313163)
(0 0.00128575813197 0.00068188032609)
(3.8770618473e-17 0.00128488361548 0.000525232064829)
(0 0.0012827640777 0.000366959952059)
(0 0.00127109342075 0.000209941176022)
(0 0.00123879526326 5.69269954264e-05)
(0 0.00117148830945 -8.9577682022e-05)
(0 0.00105071087124 -0.000227412117046)
(0 0.000852763642647 -0.000354828738093)
(0 0.000546962645973 -0.00047052979461)
(0 9.29926164361e-05 -0.000573670857008)
(0 -0.000563104228914 -0.00066383255404)
(0 -0.00149500240003 -0.000740962905789)
(0 -0.00280525785773 -0.000805291503206)
(0 -0.00463897562556 -0.000857212141463)
(0 -0.00720354779004 -0.000897119315994)
(7.4854345036e-17 -0.0107947914616 -0.000925159434359)
(0 -0.0158231001517 -0.00094080450708)
(0 -0.0228078994386 -0.000942044832321)
(0 -0.0322279440416 -0.000923797126817)
(0 -0.0439126436012 -0.000874993640198)
(0 -0.0554673877622 -0.000775231664038)
(1.24044069982e-17 -0.0605511808927 -0.000600815196863)
(0 -0.0523928642073 -0.000365076086447)
(0 -0.0334430200803 -0.000155462624481)
(0 -0.014808982196 -4.22759110879e-05)
(0 -0.00314172623616 -6.725414309e-06)
(0 -0.00199310982883 -7.8901862584e-06)
(0 0.00016717294175 0.00208157855212)
(0 0.000488058040065 0.00206216321689)
(0 0.000778273839421 0.00202873609971)
(0 0.00103210592623 0.00198746638912)
(0 0.00124697510352 0.00194397162842)
(0 0.00142256055226 0.00190256081452)
(0 0.001559987688 0.00186596501227)
(0 0.00166122655446 0.00183538649479)
(0 0.00172872206133 0.00181071031126)
(0 0.00176521024273 0.00179077421429)
(0 0.00177365589968 0.00177364175693)
(0 0.00175725358529 0.00175685564151)
(0 0.0017194485727 0.00173766534344)
(0 0.00166394867653 0.00171322989508)
(0 0.00159470886335 0.00168079819039)
(-2.66218003959e-17 0.0015158784631 0.00163786825082)
(0 0.00143170626636 0.00158232528922)
(0 0.00134640266686 0.00151255690703)
(0 0.00126396086177 0.00142754273451)
(0 0.00118794124777 0.00132691536883)
(0 0.001121224694 0.00121098960872)
(0 0.00106574117371 0.00108075770672)
(7.39817434018e-17 0.0010221800365 0.000937849642711)
(0 0.000989686515045 0.000784459203091)
(0 0.000965545161528 0.000623238865144)
(0 0.00094484398353 0.000457168933928)
(-4.46403117401e-17 0.000920102020335 0.000289408811115)
(0 0.000880826663924 0.000123140316829)
(0 0.000812943434766 -3.85857391689e-05)
(0 0.000698007472914 -0.000192988353413)
(0 0.000512058237322 -0.00033767016269)
(0 0.000223909415417 -0.000470698167073)
(0 -0.000207437235179 -0.000590646101742)
(0 -0.000836720518916 -0.000696596210703)
(6.5011850037e-17 -0.00173838707103 -0.000788100297113)
(6.81397739038e-17 -0.00301561273689 -0.000865099997108)
(-3.5709095988e-17 -0.00481375561805 -0.000927802286935)
(0 -0.00733972240866 -0.000976494696883)
(0 -0.0108873763979 -0.00101125776893)
(0 -0.0158621460186 -0.00103147307888)
(0 -0.022772193268 -0.00103490124941)
(0 -0.0320724259221 -0.0010158857204)
(0 -0.0435490202171 -0.000962118893447)
(0 -0.0547646445041 -0.000851086542941)
(1.30012218958e-17 -0.0594552876489 -0.000657391193988)
(0 -0.0511560948198 -0.000397710392022)
(0 -0.0325115310907 -0.000168822137523)
(-9.35596692222e-19 -0.0143622814649 -4.58590403776e-05)
(0 -0.0030350795107 -7.30793433602e-06)
(0 -0.00194406442096 -8.6581076601e-06)
(0 0.00016029649947 0.00216975127827)
(-2.89042227913e-17 0.000468718888244 0.00214495209252)
(0 0.000749578284957 0.00210185642339)
(0 0.000997795247942 0.00204788954866)
(0 0.00121069656016 0.00198997673042)
(-3.4881403348e-17 0.00138736582952 0.00193369314893)
(0 0.00152805328559 0.00188291784636)
(0 0.00163373904865 0.00183982931454)
(0 0.00170586628724 0.00180508678998)
(0 0.00174621477357 0.00177808809678)
(0 0.00175686965002 0.00175724253092)
(0 0.00174024215769 0.00174023100457)
(2.4233776395e-17 0.00169910778008 0.00172424476642)
(0 0.0016366366973 0.00170620265406)
(-5.32436007909e-17 0.00155639931796 0.0016829493427)
(0 0.00146233561043 0.00165143654034)
(0 0.00135868135191 0.00160888741719)
(0 0.0012498477494 0.00155294275991)
(0 0.00114025352427 0.00148178587404)
(0 0.00103411072726 0.00139424233088)
(0 0.000935167351229 0.00128985030388)
(0 0.000846411168944 0.00116889745595)
(0 0.000769739926414 0.0010324211421)
(0 0.000705602635075 0.000882170045924)
(0 0.000652614553865 0.000720527302669)
(0 0.000607143529885 0.000550397623026)
(4.6788097048e-17 0.000562856369289 0.000375063775555)
(0 0.000510199121021 0.000198020759414)
(0 0.000435762373542 2.27986843295e-05)
(5.38715996827e-17 0.000321448879079 -0.000147212701729)
(0 0.000143311510967 -0.000308924185648)
(0 -0.000130142330967 -0.000459679062092)
(0 -0.000540489492704 -0.000597346153841)
(-3.2505925018e-17 -0.00114323892793 -0.000720366155281)
(0 -0.00201368216132 -0.000827746523307)
(0 -0.00325575012967 -0.000919001445666)
(0 -0.00501521896456 -0.000994030632855)
(0 -0.0074986571477 -0.00105291939003)
(0 -0.0109980301725 -0.00109561366238)
(0 -0.0159136406524 -0.00112135866988)
(0 -0.0227417870441 -0.00112765323828)
(2.36699772067e-17 -0.0319121743936 -0.00110823553598)
(0 -0.0431657164035 -0.00104951661833)
(0 -0.0540224094293 -0.000926858842401)
(0 -0.0583043586611 -0.000713366111192)
(0 -0.0498673018904 -0.000429588597872)
(0 -0.031547212858 -0.000181749852765)
(0 -0.0139015992377 -4.93153901652e-05)
(0 -0.0029255319655 -7.87364127686e-06)
(0 -0.00189315870365 -9.42829017596e-06)
(-2.89042227917e-17 0.000152067981706 0.00225824504944)
(-3.02948955405e-17 0.000445443813512 0.0022277429903)
(0 0.000714664171137 0.00217429080675)
(0 0.000955409900374 0.0021064879892)
(0 0.00116503749729 0.00203250572595)
(-3.65596569873e-17 0.0013421380477 0.00195917262228)
(0 0.00148615535467 0.00189155946412)
(0 0.00159710963226 0.00183291476562)
(0 0.0016754350639 0.00178480316104)
(0 0.00172191391203 0.00174733766316)
(0 0.00173767903392 0.00171944035167)
(-2.4233776395e-17 0.00172425582532 0.00169909929104)
(0 0.00168361842522 0.00168360987025)
(0 0.00161824003899 0.0016697990345)
(2.79026586497e-17 0.00153112186703 0.00165423461077)
(0 0.00142578893962 0.00163342208601)
(3.06522184972e-17 0.00130624423215 0.00160398971029)
(0 0.0011768749754 0.00156286083421)
(-3.36727231136e-17 0.00104230728424 0.00150741056695)
(0 0.000907207202645 0.00143560246823)
(0 0.000776028050467 0.00134610014731)
(0 0.00065270551332 0.0012383483764)
(0 0.000540303085906 0.00111261859554)
(0 0.000440610954302 0.00097001452254)
(-4.46403117384e-17 0.000353700618595 0.00081243499705)
(0 0.000277434570197 0.000642493254618)
(4.90392190387e-17 0.00020692375312 0.000463394550108)
(0 0.000133913352716 0.000278777359331)
(-5.38715996865e-17 4.6056988884e-05 9.25270194968e-05)
(0 -7.39929478915e-05 -9.14258220172e-05)
(-2.95900843181e-17 -0.000249800282768 -0.000269306801912)
(0 -0.000512860092609 -0.000437682870955)
(0 -0.000905116599719 -0.000593614405998)
(0 -0.00148274509865 -0.000734759950861)
(0 -0.00232188609292 -0.000859421935664)
(0 -0.00352732252822 -0.000966523806278)
(-7.84558221737e-17 -0.00524540697251 -0.00105550742381)
(0 -0.00768253921772 -0.00112612906103)
(0 -0.0111288886533 -0.00117810240973)
(0 -0.0159795350611 -0.00121046663632)
(0 -0.0227183972818 -0.0012204087473)
(0 -0.0317487568751 -0.00120101674876)
(0 -0.0427645367471 -0.00113737009336)
(0 -0.0532437507691 -0.00100269618248)
(0 -0.057104099073 -0.00076882887467)
(7.48477353777e-18 -0.0485342123039 -0.000460757727031)
(0 -0.0305565755378 -0.000194267490829)
(0 -0.0134302193167 -5.26513158769e-05)
(1.3465521589e-19 -0.00281392272242 -8.42385989516e-06)
(0 -0.00184070088311 -1.02041163515e-05)
(0 0.000142563510268 0.00234886220868)
(0 0.000418418325196 0.00231254531555)
(0 0.0006737181972 0.00224841035503)
(0 0.000905001172221 0.00216608434781)
(0 0.00110977861834 0.00207485341552)
(0 0.00128627535757 0.00198272105948)
(0 0.00143323335961 0.00189593763296)
(0 0.00154978395008 0.00181887311317)
(0 0.0016353865999 0.00175410103312)
(-2.31213364328e-17 0.00168982460772 0.00170259088074)
(0 0.00171324315118 0.00166394301858)
(0 0.00170621349598 0.0016366306507)
(0 0.00166980752656 0.00161823381555)
(0 0.00160566809478 0.00160566183011)
(0 0.00151606227697 0.00159536563809)
(6.13044369937e-17 0.0014039062362 0.0015835425872)
(0 0.00127275192395 0.00156633511373)
(0 0.00112672738418 0.00154002288521)
(0 0.000970423976339 0.0015012058908)
(0 0.000808725397146 0.00144697418384)
(0 0.000646574938267 0.00137505867677)
(0 0.000488678879053 0.00128395662032)
(0 0.000339145171386 0.00117302516899)
(0 0.000201057410059 0.00104253672297)
(0 7.59840956204e-05 0.000893690568285)
(0 -3.65783659108e-05 0.000728576779081)
(5.13986495608e-17 -0.000139834883983 0.000550090530096)
(0 -0.000240408348451 0.000361797996185)
(0 -0.000349176068631 0.000167758878108)
(0 -0.000482287424774 -2.76849256336e-05)
(0 -0.00066247101819 -0.000220140384543)
(0 -0.000920812022126 -0.000405396059056)
(0 -0.00129928940021 -0.000579635842406)
(0 -0.00185452276557 -0.000739612470901)
(0 -0.00266340598574 -0.000882760712777)
(0 -0.00383160154009 -0.00100723178578)
(0 -0.00550616414884 -0.00111182957624)
(0 -0.00789349886821 -0.00119581951973)
(0 -0.0112821176769 -0.00125855054018)
(0 -0.0160618434241 -0.00129875553662)
(0 -0.0227037867781 -0.00131323562794)
(0 -0.0315837236384 -0.00129436626176)
(-2.72535028571e-17 -0.0423471585564 -0.00122583387515)
(0 -0.0524314441375 -0.00107872055217)
(0 -0.0558596808908 -0.00082384859437)