/*--------------------------------*- C++ -*----------------------------------*\
| =========                 |                                                 |
| \\      /  F ield         | OpenFOAM: The Open Source CFD Toolbox           |
|  \\    /   O peration     | Version:  3.0.1                                 |
|   \\  /    A nd           | Web:      www.OpenFOAM.org                      |
|    \\/     M anipulation  |                                                 |
\*---------------------------------------------------------------------------*/
FoamFile
{
    version     2.0;
    format      ascii;
    class       volTensorField;
    location    "50000";
    object      grad(U);
}
// * * * * * * * * * * * * * * * * * * * * * * * * * * * * * * * * * * * * * //

dimensions      [0 0 -1 0 0 0 0];

internalField   nonuniform List<tensor> 
2500
(
(0 0 0 -0.00764334497316 2.60260897028e-11 1.55539738036e-13 -0.00764315926865 -1.59758616729e-13 -2.59994664873e-11)
(0 0 0 -0.0224631748357 2.5401779233e-11 4.51467103577e-13 -0.00765766082971 -4.66834924033e-13 -2.53941299312e-11)
(0 0 -1.68259577283e-26 -0.0363174810419 2.42803939417e-11 7.21733851915e-13 -0.00768579714587 -7.44939616594e-13 -2.42941444266e-11)
(0 0 0 -0.0492091257215 2.27861727838e-11 9.63970982844e-13 -0.00772663967442 -9.96609143844e-13 -2.27895143999e-11)
(0 0 0 -0.061252200776 2.09701382918e-11 1.17206150982e-12 -0.00777822143999 -1.22688637865e-12 -2.09724633724e-11)
(1.06506009765e-14 7.74933212705e-26 -9.68666515881e-27 -0.072627230827 1.89138199426e-11 1.36019359118e-12 -0.00783734232475 -1.42243488257e-12 -1.89279987536e-11)
(0 0 0 -0.0835419073105 1.66983358657e-11 1.5205383897e-12 -0.00789988731231 -1.59567507353e-12 -1.66999965087e-11)
(1.17001233594e-14 8.51296016436e-26 -5.32060010272e-27 -0.0942062367795 1.43542396863e-11 1.66303147577e-12 -0.00796130769594 -1.73820714825e-12 -1.43648810437e-11)
(0 0 0 -0.104820406184 1.19392801415e-11 1.79224366132e-12 -0.0080170626448 -1.8505400678e-12 -1.19428691506e-11)
(0 0 0 -0.115570750387 9.48564745517e-12 1.89495489022e-12 -0.00806295546884 -1.94847060067e-12 -9.48304780424e-12)
(0 0 0 -0.126629956435 7.01450649325e-12 1.9872260276e-12 -0.00809536507628 -2.01867800099e-12 -7.01136106645e-12)
(0 0 0 -0.138159144025 4.5487264983e-12 2.06385313296e-12 -0.00811139167325 -2.06964079956e-12 -4.54889260485e-12)
(7.39948103469e-15 1.07676620751e-25 -8.41223599615e-28 -0.150310635088 2.1101947243e-12 2.12835294157e-12 -0.00810893495834 -2.09983793695e-12 -2.12014598375e-12)
(0 0 0 -0.163230926701 -2.67585917117e-13 2.18342066853e-12 -0.00808671800253 -2.10972207342e-12 2.67079630707e-13)
(0 0 0 -0.177063741592 -2.59194178573e-12 2.22639214773e-12 -0.00804426566847 -2.104067443e-12 2.59318289024e-12)
(0 0 0 -0.191953195085 -4.85241955446e-12 2.25968289724e-12 -0.00798184544529 -2.08317609289e-12 4.85150440175e-12)
(0 0 0 -0.208047184382 -7.03328927731e-12 2.28262337244e-12 -0.00790037794939 -2.04986370033e-12 7.03201138406e-12)
(0 0 0 -0.225501129418 -9.13010775918e-12 2.29667059456e-12 -0.00780132559244 -2.00486901441e-12 9.12959865703e-12)
(0 0 0 -0.244482207091 -1.11376193742e-11 2.30146856976e-12 -0.00768656795826 -1.95042242176e-12 1.11387556035e-11)
(0 0 0 -0.265174235691 -1.30553690587e-11 2.29716257886e-12 -0.00755827284324 -1.88815606499e-12 1.30561607582e-11)
(0 0 0 -0.287783396426 -1.48794473461e-11 2.28462850731e-12 -0.00741877110878 -1.81858298913e-12 1.48791898508e-11)
(0 0 0 -0.312545029004 -1.66080453339e-11 2.26335996637e-12 -0.00727044204164 -1.7434916302e-12 1.66055966428e-11)
(0 0 0 -0.339731814253 -1.82373869061e-11 2.23426794041e-12 -0.00711561414346 -1.66277315093e-12 1.82339171079e-11)
(0 0 0 -0.369663770563 -1.97651382325e-11 2.19434856113e-12 -0.00695648450587 -1.58017317636e-12 1.97649620915e-11)
(0 0 0 -0.402720651058 -2.11944598552e-11 2.14327501865e-12 -0.00679505773925 -1.49602443453e-12 2.11957748182e-11)
(0 0 0 -0.439357555565 -2.25264466426e-11 2.08247195543e-12 -0.00663310385014 -1.40894192331e-12 2.25261611091e-11)
(0 0 0 -0.480124895122 -2.37583267793e-11 2.00858619145e-12 -0.00647213346384 -1.32178517547e-12 2.37560364674e-11)
(0 0 0 -0.525694313443 -2.48860965118e-11 1.92135764874e-12 -0.00631338780046 -1.23396194064e-12 2.48834089317e-11)
(0 0 0 -0.576892849055 -2.59082180775e-11 1.81894913281e-12 -0.00615784016745 -1.14601330015e-12 2.59074915495e-11)
(0 0 0 -0.634748631713 -2.68249989776e-11 1.69853063916e-12 -0.00600620615496 -1.05897777333e-12 2.68268978727e-11)
(0 0 0 -0.700552928681 -2.76362178661e-11 1.55579371355e-12 -0.0058589594078 -9.74585490944e-13 2.76389009269e-11)
(0 0 0 -0.775945682484 -2.83383795659e-11 1.38810695292e-12 -0.00571635006992 -8.9202932812e-13 2.83406723301e-11)
(0 0 0 -0.863035301603 -2.89246417445e-11 1.19094674937e-12 -0.00557842335982 -8.11310399391e-13 2.8928116148e-11)
(0 0 0 -0.964569162841 -2.9393466971e-11 9.57122477483e-13 -0.00544503563509 -7.33619952567e-13 2.93961532728e-11)
(0 0 0 -1.08418036037 -2.97381249323e-11 6.79058675325e-13 -0.00531586478943 -6.584692884e-13 2.97380744175e-11)
(0 0 0 -1.22675076342 -2.99453566434e-11 3.45829278038e-13 -0.00519041066605 -5.8579364588e-13 2.99451092884e-11)
(0 0 0 -1.39895350388 -3.00046705893e-11 -5.86864894035e-14 -0.00506797786384 -5.16531179905e-13 3.00056457476e-11)
(0 0 0 -1.61007322613 -2.99016107673e-11 -5.55693786129e-13 -0.00494762612197 -4.50499029061e-13 2.99039084525e-11)
(0 0 0 -1.87324972888 -2.96167449262e-11 -1.1760381256e-12 -0.0048280558618 -3.87816485631e-13 2.96188215972e-11)
(0 0 0 -2.20732615823 -2.91200604766e-11 -1.96473421331e-12 -0.00470735462433 -3.28674340708e-13 2.91211210107e-11)
(0 0 0 -2.63937506306 -2.83688699964e-11 -2.98785830411e-12 -0.0045824224098 -2.7311047428e-13 2.83702964873e-11)
(0 0 0 -3.20716234246 -2.73066066379e-11 -4.3414092558e-12 -0.0044476168465 -2.21495464106e-13 2.73093937625e-11)
(0 0 0 -3.95725370116 -2.58539886891e-11 -6.15343535699e-12 -0.00429147194381 -1.74454595746e-13 2.58591162509e-11)
(0 0 0 -4.92324484261 -2.39139820999e-11 -8.54492859453e-12 -0.00408910978127 -1.32109190871e-13 2.39148753095e-11)
(0 0 0 -6.0549798568 -2.13790555432e-11 -1.14763785425e-11 -0.00378943774795 -9.41660696324e-14 2.13637240659e-11)
(0 0 0 -7.13474112629 -1.81786727815e-11 -1.45211393412e-11 -0.00331868894888 -6.20717302465e-14 1.8155704513e-11)
(0 0 0 -7.88549167515 -1.44235960044e-11 -1.70194833964e-11 -0.00265419651203 -3.66463479647e-14 1.44103805376e-11)
(0 0 0 -8.24911677824 -1.03435306683e-11 -1.87111263425e-11 -0.00188478492795 -1.79990420639e-14 1.03781558909e-11)
(0 0 0 -8.39429970232 -6.13164876124e-12 -1.98770673418e-11 -0.00110947024868 -6.04488623991e-15 6.25212661079e-12)
(0 0 0 -8.47531595633 -2.23820254743e-12 -2.08453988616e-11 -0.000364121288307 -3.61370475541e-16 2.11186081704e-12)
(0 0 0 -0.00765784653422 2.54068298052e-11 4.56936795734e-13 -0.0224626864176 -4.61315760696e-13 -2.54008373724e-11)
(0 0 0 -0.0225071664393 2.48032177448e-11 1.32750308964e-12 -0.0225066766683 -1.34694419248e-12 -2.48017345609e-11)
(0 0 0 -0.0363918382824 2.37124394309e-11 2.11720423931e-12 -0.0225918658071 -2.1547829654e-12 -2.37179669757e-11)
(0 0 0 -0.049313383927 2.22445633052e-11 2.82532182721e-12 -0.0227153636565 -2.88547237668e-12 -2.22475891912e-11)
(0 0 0 -0.0613829384322 2.04690116477e-11 3.44113046482e-12 -0.0228713790407 -3.54682982921e-12 -2.04711503048e-11)
(1.11630347701e-14 8.12217678327e-26 -2.03054419582e-26 -0.0727776878295 1.84587096878e-11 3.98759056629e-12 -0.0230506196991 -4.1194844556e-12 -1.84646348811e-11)
(0 0 0 -0.0837024433649 1.6290255715e-11 4.46305057528e-12 -0.0232411547915 -4.61611054119e-12 -1.6293408344e-11)
(-1.22630529642e-14 -8.92254535878e-26 0 -0.0943651337303 1.40091972093e-11 4.87437291657e-12 -0.023429758301 -5.03742421186e-12 -1.3999635768e-11)
(0 0 0 -0.104964713378 1.16405730735e-11 5.23776011576e-12 -0.0236031582342 -5.37891422847e-12 -1.16405659401e-11)
(1.3471468208e-14 9.80178316824e-26 0 -0.115687056939 9.23586063544e-12 5.54721622991e-12 -0.0237489985968 -5.65516015307e-12 -9.23935425579e-12)
(0 0 0 -0.126705067333 6.8258073783e-12 5.81642532242e-12 -0.0238565110642 -5.86125211012e-12 -6.82508894013e-12)
(7.39948103457e-15 1.07676620749e-25 -6.72978879681e-27 -0.138180664816 4.41655766607e-12 6.04309103147e-12 -0.0239169482281 -6.00768075883e-12 -4.42413852555e-12)
(1.55109865167e-14 1.1285728045e-25 -1.76339500703e-27 -0.150267469052 2.04218769486e-12 6.23752479712e-12 -0.0239238283142 -6.09159247757e-12 -2.0515756891e-12)
(0 0 0 -0.163113679995 -2.74541167102e-13 6.39722755835e-12 -0.0238730274272 -6.12352299662e-12 2.75633658073e-13)
(0 0 0 -0.17686502684 -2.54119067863e-12 6.52079049657e-12 -0.0237627433521 -6.11147313541e-12 2.54423524008e-12)
(0 0 0 -0.191667823721 -4.74467405951e-12 6.61663433945e-12 -0.0235933504685 -6.05443082987e-12 4.74491437931e-12)
(0 0 0 -0.207672242416 -6.87044714552e-12 6.68349031142e-12 -0.023367164972 -5.96000138704e-12 6.86980161127e-12)
(0 0 0 -0.225035938416 -8.91364165619e-12 6.72398538895e-12 -0.0230881420004 -5.83178288358e-12 8.91343799176e-12)
(0 0 0 -0.243928179838 -1.08715071795e-11 6.73798968512e-12 -0.0227615282341 -5.67540132473e-12 1.08709434571e-11)
(0 0 0 -0.264534643613 -1.27403903029e-11 6.72768302373e-12 -0.0223934946981 -5.4936475553e-12 1.27390977421e-11)
(0 0 0 -0.287063070428 -1.45173462691e-11 6.69100103137e-12 -0.0219907733648 -5.29277275379e-12 1.45157180041e-11)
(0 0 0 -0.311750017497 -1.61993022772e-11 6.62764787811e-12 -0.0215603179101 -5.07645636707e-12 1.61987591382e-11)
(0 0 0 -0.338869022368 -1.77885917582e-11 6.5415278904e-12 -0.0211090044203 -4.84342259753e-12 1.77873040207e-11)
(6.50233326841e-15 9.46214025085e-26 0 -0.368740601801 -1.92848955167e-11 6.42800540653e-12 -0.0206433827102 -4.60009391181e-12 1.92790204857e-11)
(0 0 0 -0.401744667797 -2.06774849052e-11 6.28114525761e-12 -0.0201694828996 -4.35297723315e-12 2.067557211e-11)
(0 0 0 -0.43833617054 -2.19752961148e-11 6.10414735876e-12 -0.0196926774876 -4.09852389021e-12 2.19743426268e-11)
(0 0 0 -0.479065101089 -2.31781567961e-11 5.89071104735e-12 -0.019217594785 -3.84184899524e-12 2.31753074708e-11)
(0 0 0 -0.524602452109 -2.42753051914e-11 5.63439581178e-12 -0.0187480773724 -3.58659508387e-12 2.42771489823e-11)
(-8.22451015649e-15 -5.98411872961e-26 -2.9920593648e-26 -0.575774416969 -2.52709973864e-11 5.33385175969e-12 -0.0182871767959 -3.33032191156e-12 2.52785743871e-11)
(-8.62021711653e-15 -6.27203343649e-26 -3.13601671825e-26 -0.633608117524 -2.61708503159e-11 4.97905999899e-12 -0.01783717596 -3.07760136096e-12 2.61772883811e-11)
(0 0 0 -0.699393671358 -2.6968441813e-11 4.56176570626e-12 -0.0173996300658 -2.82921611793e-12 2.69712882975e-11)
(0 0 0 -0.774769736986 -2.76538787556e-11 4.07057797277e-12 -0.0169754175466 -2.58656110668e-12 2.7657794808e-11)
(0 0 0 -0.861843293532 -2.82287161648e-11 3.49042683422e-12 -0.016564793047 -2.35135513755e-12 2.82326165824e-11)
(0 0 0 -0.963360103868 -2.86896563883e-11 2.80435977046e-12 -0.0161674340341 -2.12290593353e-12 2.86908625498e-11)
(0 0 0 -1.08295137878 -2.90246573999e-11 1.98733268205e-12 -0.0157824717624 -1.90255925712e-12 2.90259092825e-11)
(0 0 0 -1.2254966675 -2.92274712609e-11 1.00669989581e-12 -0.0154084931676 -1.69072243762e-12 2.92290088307e-11)
(0 0 0 -1.39766601573 -2.92874602851e-11 -1.82759183581e-13 -0.0150434908749 -1.48806133578e-12 2.92884549291e-11)
(0 -2.28356658663e-26 -4.56713317326e-26 -1.60873953683 -2.91864883774e-11 -1.64421984061e-12 -0.0146847170299 -1.29506051623e-12 2.91891673227e-11)
(0 0 0 -1.87184957341 -2.89073881772e-11 -3.46815218034e-12 -0.0143283444169 -1.11221239906e-12 2.89099753426e-11)
(0 0 0 -2.20582544622 -2.84200541698e-11 -5.78662246786e-12 -0.0139687133864 -9.40336220392e-13 2.84224758184e-11)
(0 0 0 -2.63771101803 -2.76834204928e-11 -8.79264228884e-12 -0.0135966237208 -7.79399459005e-13 2.76867857662e-11)
(0 0 0 -3.20520702555 -2.66454563873e-11 -1.27664715621e-11 -0.0131953055337 -6.30266434584e-13 2.66472789505e-11)
(3.96976077014e-15 1.4441905551e-26 2.8883811102e-26 -3.9547251625 -2.52262292978e-11 -1.8079772449e-11 -0.0127306644657 -4.93679799396e-13 2.52265174811e-11)
(0 0 0 -4.91952800899 -2.33230187688e-11 -2.5083385916e-11 -0.0121287498807 -3.70767252263e-13 2.33229558718e-11)
(0 0 0 -6.04899763432 -2.08391067901e-11 -3.36568204848e-11 -0.0112378819354 -2.63161206732e-13 2.08272611429e-11)
(0 0 0 -7.12551309739 -1.77142479547e-11 -4.25435442924e-11 -0.00983969980056 -1.72554169861e-13 1.76928382662e-11)
(0 0 0 -7.87330297947 -1.4050956439e-11 -4.98174739947e-11 -0.00786816231328 -1.00978461168e-13 1.40383985537e-11)
(0 0 0 -8.23537667572 -1.0072758233e-11 -5.47272980314e-11 -0.00558690434803 -4.90377682349e-14 1.0107719459e-11)
(0 0 0 -8.38013068621 -5.96860413177e-12 -5.80966379738e-11 -0.00328866440688 -1.61440892628e-14 6.08775728703e-12)
(0 0 0 -8.46108933799 -2.17691485651e-12 -6.0881364579e-11 -0.0010793186752 -8.47663997855e-16 2.05568869406e-12)
(0 0 0 -0.00768598155958 2.42926146148e-11 7.40976508731e-13 -0.0363168506811 -7.25984706095e-13 -2.42983704074e-11)
(0 0 0 -0.0225923542873 2.37214896996e-11 2.14704998579e-12 -0.0363912021484 -2.12534691833e-12 -2.3719009332e-11)
(0 0 0 -0.0365355232324 2.26806383185e-11 3.41068210866e-12 -0.0365348825454 -3.41431327815e-12 -2.26778669173e-11)
(0 0 0 -0.049514740681 2.12689369186e-11 4.54202887773e-12 -0.0367429669552 -4.58252569412e-12 -2.12656737285e-11)
(0 0 0 -0.0616359684135 1.95612540385e-11 5.53800586973e-12 -0.0370062504111 -5.6282038162e-12 -1.95638263182e-11)
(0 0 0 -0.0730704507008 1.76342517156e-11 6.41131583137e-12 -0.0373101859632 -6.54558449794e-12 -1.7635363295e-11)
(0 8.92254535893e-26 -2.23063633973e-26 -0.0840177691218 1.55473776413e-11 7.17712342513e-12 -0.037636073521 -7.33426347927e-12 -1.55541420458e-11)
(0 0 0 -0.0946819652634 1.33527826852e-11 7.83918246695e-12 -0.0379630372293 -8.00592569667e-12 -1.33553419949e-11)
(0 0 0 -0.105259553326 1.1089008472e-11 8.41432695235e-12 -0.038269910918 -8.55948027794e-12 -1.10915757733e-11)
(0 0 0 -0.115935309529 8.79019693475e-12 8.9150946405e-12 -0.0385367207288 -8.99727576466e-12 -8.78962386896e-12)
(0 0 0 -0.126882232356 6.48219132208e-12 9.34386906505e-12 -0.0387457463915 -9.33140310386e-12 -6.478966121e-12)
(0 0 0 -0.138263391466 4.1849011358e-12 9.707137346e-12 -0.038882233108 -9.56804884754e-12 -4.18279101971e-12)
(0 0 0 -0.150234476137 1.91928385308e-12 1.00150891441e-11 -0.0389348266215 -9.7096729445e-12 -1.9164061754e-12)
(0 0 0 -0.162946534513 -3.00269581476e-13 1.02662861346e-11 -0.0388957829603 -9.7699845951e-12 3.01277837585e-13)
(0 0 0 -0.176548760709 -2.46335840322e-12 1.04644207967e-11 -0.0387609856249 -9.75619580485e-12 2.46360010013e-12)
(0 0 0 -0.19119136588 -4.56008292e-12 1.06160065853e-11 -0.0385297947612 -9.67297960773e-12 4.55932388572e-12)
(0 0 0 -0.207028649029 -6.58403773974e-12 1.07226394491e-11 -0.0382047513291 -9.52875248418e-12 6.58266320221e-12)
(0 0 0 -0.224222415292 -8.52903174349e-12 1.07871587493e-11 -0.0377911632882 -9.33042473347e-12 8.52764160913e-12)
(0 0 0 -0.24294590572 -1.03896880244e-11 1.08097983175e-11 -0.0372966053922 -9.08634741665e-12 1.03904765508e-11)
(0 0 0 -0.263388416966 -1.21688435114e-11 1.07928835098e-11 -0.0367303678481 -8.8019765119e-12 1.21683033461e-11)
(0 8.61336903001e-26 2.1533422575e-26 -0.28576081383 -1.38665405596e-11 1.07364163448e-11 -0.036102889622 -8.48387623592e-12 1.38581110773e-11)
(0 0 0 -0.310302180799 -1.54645649762e-11 1.06397330879e-11 -0.0354252103529 -8.1380967325e-12 1.54608860117e-11)
(-6.50233326831e-15 -9.4621402507e-26 0 -0.337287928293 -1.69675472358e-11 1.04997688994e-11 -0.0347084691332 -7.77172429697e-12 1.69744546911e-11)
(0 0 0 -0.367039774883 -1.83954811355e-11 1.03172941927e-11 -0.0339634714509 -7.3864684533e-12 1.83953374813e-11)
(0 0 0 -0.399938182156 -1.97260062671e-11 1.00875459857e-11 -0.0332003372357 -6.9884857622e-12 1.97257451781e-11)
(-7.48675661029e-15 0 -5.44733237642e-26 -0.436438043007 -2.09584305769e-11 9.80422147984e-12 -0.0324282350944 -6.58338094835e-12 2.09651299196e-11)
(7.84696793529e-15 5.7094206097e-26 0 -0.477088746929 -2.21124920462e-11 9.46355096436e-12 -0.0316552004455 -6.17279643851e-12 2.21100768086e-11)
(0 0 0 -0.522560211509 -2.31620930187e-11 9.05702649564e-12 -0.0308880298876 -5.76108895173e-12 2.31618189709e-11)
(-8.62021711701e-15 -6.27203343685e-26 -6.27203343685e-26 -0.573677150981 -2.41105793961e-11 8.57461617075e-12 -0.0301322405262 -5.35194300419e-12 2.41186830663e-11)
(-9.0349627791e-15 -6.57380062265e-26 -6.57380062265e-26 -0.631464864515 -2.49702956616e-11 8.00508949985e-12 -0.0293920806534 -4.94758332715e-12 2.49780468797e-11)
(-9.46966315525e-15 -6.89008677382e-26 -6.89008677382e-26 -0.697211347365 -2.57316460979e-11 7.335630231e-12 -0.0286705771035 -4.5488192089e-12 2.57384740447e-11)
(0 0 0 -0.772552855984 -2.63957708621e-11 6.5472305524e-12 -0.0279696053876 -4.15862723181e-12 2.6396222285e-11)
(0 0 0 -0.859593671831 -2.6949058181e-11 5.6171111964e-12 -0.0272899682886 -3.77850840009e-12 2.69481598631e-11)
(0 0 0 -0.961076495945 -2.73894552284e-11 4.51586576037e-12 -0.0266314683266 -3.40951501706e-12 2.73890068051e-11)
(5.7139599027e-15 0 4.15745300612e-26 -1.0806289586 -2.77153765626e-11 3.20388676679e-12 -0.0259929578291 -3.0531855636e-12 2.77123201059e-11)
(0 0 0 -1.22312619894 -2.79121270872e-11 1.62751903622e-12 -0.0253723434343 -2.71133204089e-12 2.7909747806e-11)
(0 0 0 -1.39523240559 -2.79706114592e-11 -2.84874051767e-13 -0.0247665066553 -2.38394891883e-12 2.79698795745e-11)
(-6.57902714414e-15 -2.39343613217e-26 -4.78687226433e-26 -1.60621911247 -2.7876517474e-11 -2.63556234485e-12 -0.0241710662573 -2.07236153407e-12 2.78779541424e-11)
(0 0 0 -1.86920457178 -2.76136067295e-11 -5.57070615635e-12 -0.0235798226632 -1.7780239354e-12 2.76135907701e-11)
(0 0 0 -2.20299201377 -2.71502083676e-11 -9.30136150434e-12 -0.0229835171499 -1.50088744745e-12 2.71493882966e-11)
(0 0 0 -2.6345712131 -2.64454748278e-11 -1.41391938255e-11 -0.0223670114946 -1.24243614417e-12 2.64471509191e-11)
(0 0 0 -3.20152012808 -2.54492750856e-11 -2.05334631671e-11 -0.0217026309228 -1.00323923451e-12 2.54532400388e-11)
(-4.16075840263e-15 -7.5683754451e-27 -6.05470035608e-26 -3.94996059393 -2.40863760561e-11 -2.90795060955e-11 -0.0209340565976 -7.84269185986e-13 2.40935492834e-11)
(0 0 0 -4.91252973462 -2.22684513315e-11 -4.03360598097e-11 -0.0199392085097 -5.87705827352e-13 2.22707551158e-11)
(0 0 0 -6.03774714104 -1.98963844022e-11 -5.40990466592e-11 -0.0184683095884 -4.16428289502e-13 1.98818776295e-11)
(0 0 0 -7.10818380174 -1.69080131776e-11 -6.83429808592e-11 -0.0161637842108 -2.72416748767e-13 1.68852173991e-11)
(0 0 0 -7.85044161905 -1.34102067187e-11 -7.99885060514e-11 -0.0129208282854 -1.58891663136e-13 1.33963825179e-11)
(0 0 0 -8.20962209084 -9.61501284736e-12 -8.78495484742e-11 -0.00917337474772 -7.68838510924e-14 9.64651318146e-12)
(0 0 0 -8.35357717116 -5.69923585158e-12 -9.32491941472e-11 -0.00539966414461 -2.51678213026e-14 5.81113800005e-12)
(0 -2.05394991784e-29 0 -8.43442850736 -2.08034229091e-12 -9.77132072953e-11 -0.00177213293706 -1.30910052962e-15 1.96280489734e-12)
(0 0 0 -0.00772682006444 2.27904568859e-11 9.97366834796e-13 -0.049208528533 -9.6328008063e-13 -2.27925525195e-11)
(0 0 0 -0.022715843769 2.22499276889e-11 2.8858645989e-12 -0.0493127736332 -2.82497265586e-12 -2.22494962147e-11)
(0 0 0 -0.0367436032981 2.12670657033e-11 4.58212318162e-12 -0.0495141142811 -4.54236853058e-12 -2.12696179935e-11)
(0 0 0 -0.0498066623708 1.99355762509e-11 6.10004825854e-12 -0.0498060279707 -6.10126213738e-12 -1.99370656199e-11)
(0 0 0 -0.0620043902097 1.83235720714e-11 7.43961112633e-12 -0.0501768363388 -7.49371596441e-12 -1.83294479488e-11)
(0 0 0 -0.0735002381128 1.65050015649e-11 8.61365506317e-12 -0.0506080741995 -8.71654171951e-12 -1.65103607989e-11)
(0 0 0 -0.0844867210753 1.45375158793e-11 9.63744308756e-12 -0.0510757568554 -9.77297926634e-12 -1.45421682303e-11)
(0 0 0 -0.095162405914 1.24683413923e-11 1.05273033214e-11 -0.0515527469145 -1.06679016439e-11 -1.24716095001e-11)
(0 0 0 -0.10572011145 1.03346969107e-11 1.1298639221e-11 -0.0520110960371 -1.14074564871e-11 -1.03358052235e-11)
(0 0 0 -0.11634260587 8.17074377063e-12 1.19641894166e-11 -0.0524239377758 -1.19994016787e-11 -8.1696965199e-12)
(0 0 0 -0.127202412447 6.00112674603e-12 1.25330305898e-11 -0.0527668839963 -1.24537060076e-11 -5.99921562269e-12)
(0 0 0 -0.138463514249 3.84510734871e-12 1.30147689919e-11 -0.0530190034267 -1.2778674415e-11 -3.84360958797e-12)
(0 0 0 -0.15028376987 1.72387816626e-12 1.34183637414e-11 -0.0531634693643 -1.29820005639e-11 -1.72205239773e-12)
(0 0 0 -0.162817510308 -3.49090840165e-13 1.37486691445e-11 -0.0531879382948 -1.30748859062e-11 3.51084874179e-13)
(0 0 0 -0.176218155782 -2.36824297685e-12 1.40109309767e-11 -0.0530846961247 -1.30669623172e-11 2.36833544339e-12)
(0 0 0 -0.190640879006 -4.32427068752e-12 1.421061303e-11 -0.0528505955274 -1.29673281168e-11 4.3238870253e-12)
(0 0 0 -0.206245432332 -6.20871226726e-12 1.43512035142e-11 -0.0524868037242 -1.27857984869e-11 6.20856082537e-12)
(0 1.56814682687e-25 0 -0.223199298295 -8.01916305192e-12 1.4435282323e-11 -0.0519983842272 -1.25323165628e-11 8.01883814071e-12)
(0 0 0 -0.241681344752 -9.75234044626e-12 1.44652009442e-11 -0.0513937427392 -1.2215799753e-11 9.75164588796e-12)
(0 0 0 -0.261886182713 -1.14038812021e-11 1.44414140782e-11 -0.0506839745888 -1.18459178283e-11 1.1404624519e-11)
(0 0 0 -0.28402944903 -1.29746859684e-11 1.43675288971e-11 -0.0498821561473 -1.14275594848e-11 1.29757637421e-11)
(0 0 0 -0.30835427509 -1.44652239914e-11 1.42424241761e-11 -0.0490026237936 -1.09689890299e-11 1.44641097503e-11)
(0 0 0 -0.335139265614 -1.58701203662e-11 1.40562617299e-11 -0.0480602815733 -1.04852086567e-11 1.58691301053e-11)
(0 0 0 -0.364708411932 -1.71903200868e-11 1.3812438084e-11 -0.0470699720851 -9.97589479469e-12 1.71907968238e-11)
(0 0 0 -0.397443512351 -1.84270802046e-11 1.35098186248e-11 -0.0460459365961 -9.44401564683e-12 1.84278203414e-11)
(0 0 0 -0.433799892189 -1.95795425729e-11 1.3133078398e-11 -0.0450013798595 -8.90405206561e-12 1.95801774641e-11)
(0 0 0 -0.474326534549 -2.06475241504e-11 1.26776052836e-11 -0.0439481452061 -8.35740783105e-12 2.06474805538e-11)
(0 0 0 -0.519692198193 -2.16279110488e-11 1.21379839692e-11 -0.0428964965576 -7.80410575495e-12 2.16281974926e-11)
(0 0 0 -0.570719780409 -2.25210542575e-11 1.14964363912e-11 -0.0418549967115 -7.25358327055e-12 2.25212863376e-11)
(0 0 0 -0.628432192754 -2.33254606332e-11 1.07384246802e-11 -0.0408304667635 -6.70825730695e-12 2.33250326517e-11)
(0 0 0 -0.694114541882 -2.4038993398e-11 9.84536108245e-12 -0.0398280080762 -6.17052914435e-12 2.40378299722e-11)
(0 0 0 -0.769399733028 -2.4656547304e-11 8.79247270651e-12 -0.0388510671628 -5.64356369914e-12 2.46554786828e-11)
(0 0 0 -0.856388222982 -2.5173876068e-11 7.54966901672e-12 -0.0379015231055 -5.12892102873e-12 2.51750838815e-11)
(0 0 0 -0.957818329441 -2.55896321222e-11 6.07579585284e-12 -0.0369797757579 -4.62971282865e-12 2.55912289091e-11)
(0 0 0 -1.07731253204 -2.5897407843e-11 4.31893266615e-12 -0.0360848100559 -4.14676469655e-12 2.58977989436e-11)
(0 0 0 -1.21973962075 -2.60857182885e-11 2.20682677136e-12 -0.035214202537 -3.68269350749e-12 2.60864501074e-11)
(-6.57902714331e-15 -2.39343613187e-26 -9.57374452746e-26 -1.3917553668 -2.61436677544e-11 -3.58202601624e-13 -0.0343640148812 -3.23885442915e-12 2.61467767988e-11)
(0 0 0 -1.60261901095 -2.60620651051e-11 -3.51325947498e-12 -0.0335284690365 -2.81666861535e-12 2.6064063167e-11)
(0 0 0 -1.86542867555 -2.58189995712e-11 -7.45393687845e-12 -0.0326991799929 -2.4172544059e-12 2.58195831171e-11)
(0 0 0 -2.19895039518 -2.5386725167e-11 -1.24636060543e-11 -0.0318634319059 -2.04053164129e-12 2.53869614982e-11)
(0 0 0 -2.63009693672 -2.47295596284e-11 -1.89610198899e-11 -0.031000248105 -1.68882052438e-12 2.47301402446e-11)
(0 0 0 -3.19627165108 -2.37953823283e-11 -2.75491393818e-11 -0.0300711070786 -1.36353889084e-12 2.37985185297e-11)
(0 0 0 -3.9431848996 -2.25174785245e-11 -3.90251727759e-11 -0.0289974985195 -1.06686330517e-12 2.25223395826e-11)
(0 0 0 -4.90258931216 -2.08107914228e-11 -5.41283974385e-11 -0.027609382103 -8.00756452858e-13 2.08108230783e-11)
(0 0 0 -6.02179593636 -1.85833259064e-11 -7.25649451549e-11 -0.0255600858927 -5.67240339456e-13 1.85694932373e-11)
(0 0 0 -7.08367025945 -1.57844743541e-11 -9.16110898751e-11 -0.0223572950212 -3.71192006376e-13 1.57634546168e-11)
(5.26275697128e-15 2.39322479105e-27 3.82915966567e-26 -7.81816400411 -1.25168524715e-11 -1.07165790248e-10 -0.0178633010059 -2.16627621121e-13 1.25041202901e-11)
(0 0 0 -8.17329631399 -8.9748472002e-12 -1.17675947423e-10 -0.0126799243968 -1.04834366256e-13 9.00514024825e-12)
(0 0 0 -8.31613565844 -5.32048206237e-12 -1.2491506927e-10 -0.0074634404993 -3.43613236081e-14 5.42620106664e-12)
(0 0 0 -8.39683709419 -1.94197963009e-12 -1.30909884464e-10 -0.00244944542979 -1.80649176341e-15 1.83338270575e-12)
(0 0 0 -0.00777839428688 2.09719228206e-11 1.22439656175e-12 -0.0612517778101 -1.17460356076e-12 -2.09702039232e-11)
(0 0 0 -0.0228718410932 2.04736948348e-11 3.54459685538e-12 -0.0613824932849 -3.44352028508e-12 -2.04693285126e-11)
(0 0 0 -0.0370068686044 1.9565073267e-11 5.62782010417e-12 -0.0616354919859 -5.53851980895e-12 -1.95622779974e-11)
(0 0 0 -0.0501774631061 1.83279424669e-11 7.49254887793e-12 -0.0620038877828 -7.44084358396e-12 -1.83254204301e-11)
(0 0 0 -0.0624756750745 1.68303252757e-11 9.13952495832e-12 -0.0624751622546 -9.13927306169e-12 -1.68308509149e-11)
(0 0 0 -0.0740559345918 1.51402141816e-11 1.05811628107e-11 -0.0630288098858 -1.06324148372e-11 -1.5141859092e-11)
(0 0 0 -0.0851022689363 1.33100708008e-11 1.18362355351e-11 -0.0636374567881 -1.19237032233e-11 -1.33134740989e-11)
(0 0 0 -0.0958063561702 1.13892839785e-11 1.29240840531e-11 -0.0642694126544 -1.30198685742e-11 -1.13911308627e-11)
(0 0 0 -0.106356012402 9.41316785327e-12 1.386401671e-11 -0.0648913246762 -1.39283943837e-11 -9.41230576947e-12)
(0 0 0 -0.116930839003 7.41075985635e-12 1.46723069721e-11 -0.0654703927209 -1.46587257412e-11 -7.40848366205e-12)
(0 0 0 -0.127701896586 5.40628973179e-12 1.53629020728e-11 -0.0659760548682 -1.52207829147e-11 -5.4047810764e-12)
(0 0 0 -0.138833289568 3.42164719863e-12 1.59439040579e-11 -0.0663812176061 -1.56289343073e-11 -3.41978019324e-12)
(0 0 0 -0.150484481506 1.47241826523e-12 1.64255154075e-11 -0.0666631266892 -1.58935027434e-11 -1.46962602869e-12)
(0 0 0 -0.162812788647 -4.31615930454e-13 1.68179331608e-11 -0.0668039490626 -1.60242769339e-11 4.32981958466e-13)
(0 0 0 -0.175975863969 -2.27924564307e-12 1.71336708721e-11 -0.0667911066509 -1.6027168805e-11 2.28072568749e-12)
(0 0 0 -0.190134180491 -4.06314790972e-12 1.73724828121e-11 -0.0666173818833 -1.5920001136e-11 4.0649118938e-12)
(0 0 0 -0.205453624992 -5.78083690932e-12 1.75361986607e-11 -0.0662808076537 -1.57164407309e-11 5.78194673018e-12)
(0 0 0 -0.222108366758 -7.42759673804e-12 1.76348095851e-11 -0.0657843543842 -1.54218668073e-11 7.42769660126e-12)
(0 0 0 -0.240284197222 -9.00084336781e-12 1.76680762617e-11 -0.0651354350167 -1.50497150834e-11 9.00086352405e-12)
(0 0 0 -0.260182560601 -1.04979215472e-11 1.76376271434e-11 -0.0643452573971 -1.46103196204e-11 1.04991479606e-11)
(-6.5023332683e-15 -9.46214025069e-26 -4.73107012534e-26 -0.282025521489 -1.19188823911e-11 1.7543997908e-11 -0.0634280642219 -1.4113214762e-11 1.19232726313e-11)
(0 0 0 -0.306061953825 -1.32721052396e-11 1.73873305672e-11 -0.0624003063399 -1.35665730789e-11 1.32699702866e-11)
(7.14308061423e-15 1.03945503568e-25 5.19727517838e-26 -0.332575294644 -1.45462139288e-11 1.71642380285e-11 -0.0612797992347 -1.29799665284e-11 1.45412101057e-11)
(-7.48675661022e-15 -1.08946647527e-25 -5.44733237637e-26 -0.361893298519 -1.5735017131e-11 1.68715383828e-11 -0.0600849095652 -1.23604628936e-11 1.57382378454e-11)
(0 0 0 -0.394400369654 -1.6856451488e-11 1.65022883635e-11 -0.0588338131145 -1.17167061013e-11 1.68583661116e-11)
(8.22451015654e-15 1.19682374593e-25 5.98411872964e-26 -0.430553259755 -1.79095382033e-11 1.60494640974e-11 -0.0575438552987 -1.10547970123e-11 1.79019159913e-11)
(8.62021711687e-15 6.27203343674e-26 6.27203343674e-26 -0.470901233715 -1.88775964197e-11 1.550232354e-11 -0.0562310336922 -1.03817765659e-11 1.88701305797e-11)
(0 0 6.57380062271e-26 -0.516112263653 -1.97605794501e-11 1.48472916651e-11 -0.0549096106968 -9.7042197508e-12 1.97615879838e-11)
(0 0 0 -0.567007491956 -2.0571665497e-11 1.40694472632e-11 -0.0535918524668 -9.02661729287e-12 2.05738281502e-11)
(0 0 0 -0.624607214311 -2.13046897303e-11 1.31513359031e-11 -0.0522878823773 -8.35177683218e-12 2.13065701552e-11)
(0 0 0 -0.690193154222 -2.19551725454e-11 1.20661730924e-11 -0.0510056299217 -7.68667357094e-12 2.19563714178e-11)
(0 0 0 -0.765394127793 -2.25234116187e-11 1.07838298753e-11 -0.0497508518545 -7.03478990153e-12 2.25214842214e-11)
(0 0 0 -0.852305801239 -2.29988140516e-11 9.2685550462e-12 -0.0485271993572 -6.39679170063e-12 2.29978558245e-11)
(-5.98887642198e-15 -4.35748110029e-26 0 -0.953660911306 -2.33788271719e-11 7.46870548818e-12 -0.0473363021084 -5.77754228067e-12 2.33808831113e-11)
(0 0 0 -1.07307532085 -2.36625289585e-11 5.32012906268e-12 -0.0461778348563 -5.17835344449e-12 2.36643478039e-11)
(0 0 0 -1.21540963752 -2.3839943416e-11 2.73516583402e-12 -0.0450495204151 -4.60136379746e-12 2.38403872578e-11)
(0 0 0 -1.38730879486 -2.38996165765e-11 -4.06848324554e-13 -0.0439469952071 -4.04892004732e-12 2.38989795744e-11)
(0 0 0 -1.59801625578 -2.38288856742e-11 -4.27398666279e-12 -0.0428633988443 -3.52256856313e-12 2.38265142319e-11)
(0 0 0 -1.86060439626 -2.36062095868e-11 -9.10605801539e-12 -0.0417883969169 -3.02334616871e-12 2.36053857095e-11)
(0 0 0 -2.19379180444 -2.32087049889e-11 -1.52529449623e-11 -0.0407059716961 -2.5532698665e-12 2.32109741581e-11)
(0 0 0 -2.62439319091 -2.26065721392e-11 -2.32270096094e-11 -0.0395893691135 -2.11390427833e-12 2.26095387348e-11)