/*--------------------------------*- C++ -*----------------------------------*\
| =========                 |                                                 |
| \\      /  F ield         | OpenFOAM: The Open Source CFD Toolbox           |
|  \\    /   O peration     | Version:  3.0.1                                 |
|   \\  /    A nd           | Web:      www.OpenFOAM.org                      |
|    \\/     M anipulation  |                                                 |
\*---------------------------------------------------------------------------*/
FoamFile
{
    version     2.0;
    format      ascii;
    class       volTensorField;
    location    "50000";
    object      grad(Usqr);
}
// * * * * * * * * * * * * * * * * * * * * * * * * * * * * * * * * * * * * * //

dimensions      [0 0 -1 0 0 0 0];

internalField   nonuniform List<tensor> 
2500
(
(0 0 0 -0.00963512128411 4.24683997917e-23 -2.04075348594e-25 -0.00963488732768 -2.09805702451e-25 4.23850009563e-23)
(0 0 0 -0.0282848332539 9.703864398e-23 -5.79496098122e-25 -0.0096415487946 -1.79603345661e-24 4.04335904401e-23)
(4.62508404268e-15 1.22424955249e-37 0 -0.045631132271 1.49707906291e-22 -8.87321081318e-25 -0.00965540023065 -4.60337493256e-24 3.70046217731e-23)
(0 0 0 -0.0616418165582 1.88859626284e-22 -1.11324776827e-24 -0.00967669018852 -8.25842767296e-24 3.25632801748e-23)
(0 0 0 -0.0764392962349 2.13320005719e-22 -1.24726811597e-24 -0.00970412296775 -1.24583940479e-23 2.75767284507e-23)
(1.06506009765e-14 5.63838120947e-37 4.40498531989e-39 -0.090238217223 2.23456038356e-22 -1.30680661309e-24 -0.0097346359303 -1.67525201153e-23 2.24601452859e-23)
(5.58151738506e-15 0 0 -0.103290924915 2.206601114e-22 -1.29118807317e-24 -0.00976385735436 -2.09973812332e-23 1.74843616408e-23)
(0 6.19399373271e-37 2.41952880184e-39 -0.115852562051 2.06421317486e-22 -1.21428384015e-24 -0.00978677458141 -2.48708146454e-23 1.29335359875e-23)
(0 0 0 -0.128163487564 1.82967673673e-22 -1.08938644523e-24 -0.00979833983684 -2.81946125764e-23 8.94108268311e-24)
(0 0 0 -0.140442793098 1.52336323328e-22 -9.14705005692e-25 -0.00979392549141 -3.10906711358e-23 5.6376303751e-24)
(0 0 0 -0.152887680047 1.16453461438e-22 -7.09180045794e-25 -0.00976963036815 -3.32782966547e-23 3.08169198072e-24)
(0 0 0 -0.16567546517 7.71718449229e-23 -4.78372836203e-25 -0.00972246449985 -3.48498014405e-23 1.2974089352e-24)
(7.39948103469e-15 1.56690105724e-36 4.78180254285e-41 -0.178966552346 3.62285261008e-23 -2.29657882112e-25 -0.00965043917502 -3.57635896208e-23 2.81783340011e-25)
(0 0 0 -0.192907648675 -4.61043789371e-24 2.93369746292e-26 -0.00955258244873 -3.60376871519e-23 4.47931948886e-27)
(0 0 0 -0.207634986461 -4.44640812408e-23 2.93962753325e-25 -0.00942889439715 -3.57790614494e-23 4.21699995404e-25)
(0 0 0 -0.223277531469 -8.23380354977e-23 5.58303011519e-25 -0.00928025462016 -3.50276554771e-23 1.4757597827e-24)
(0 0 0 -0.239960242414 -1.173273205e-22 8.17860170109e-25 -0.00910829322333 -3.38754157368e-23 3.10030174032e-24)
(0 0 0 -0.257807468 -1.48895206475e-22 1.06855238119e-24 -0.00891523748492 -3.23810985482e-23 5.22552595854e-24)
(0 0 0 -0.27694656888 -1.76642250377e-22 1.306722577e-24 -0.00870374593713 -3.06286747623e-23 7.77842576903e-24)
(0 0 0 -0.297511848637 -2.00383026513e-22 1.52896479741e-24 -0.00847674152023 -2.86885891445e-23 1.06866445617e-23)
(0 0 0 -0.319648883952 -2.19989543525e-22 1.73316317602e-24 -0.00823725395538 -2.66108592898e-23 1.38795679578e-23)
(0 0 0 -0.343519362171 -2.35465468466e-22 1.91635956988e-24 -0.0079882792578 -2.44599802023e-23 1.72870484404e-23)
(0 0 0 -0.369306566558 -2.4687025124e-22 2.07754702264e-24 -0.00773266178933 -2.22684497563e-23 2.08436241852e-23)
(0 0 0 -0.397221701578 -2.54353431108e-22 2.21165884124e-24 -0.00747300182903 -2.01148728654e-23 2.44905533947e-23)
(0 0 0 -0.427511321306 -2.58186735235e-22 2.31671588212e-24 -0.00721158887744 -1.80240531992e-23 2.81653895755e-23)
(0 0 0 -0.460466220284 -2.58646777971e-22 2.39222855641e-24 -0.00695035897476 -1.59971419098e-23 3.18121147959e-23)
(0 0 0 -0.496432275442 -2.55990811804e-22 2.43324748506e-24 -0.00669087311495 -1.40810154111e-23 3.53815144215e-23)
(0 0 0 -0.535823902245 -2.504921073e-22 2.4379327299e-24 -0.00643431275118 -1.22781300407e-23 3.88198977561e-23)
(0 0 0 -0.579141022353 -2.42468656608e-22 2.40287748005e-24 -0.00618148776229 -1.06006579729e-23 4.20815530078e-23)
(0 0 0 -0.626990761632 -2.32264753468e-22 2.32327296726e-24 -0.00593285277163 -9.06118573694e-24 4.51217296609e-23)
(0 0 0 -0.680115536339 -2.2021596157e-22 2.19228455824e-24 -0.00568852745835 -7.67300583444e-24 4.78947938301e-23)
(0 0 0 -0.739429776221 -2.06630712428e-22 2.00548243449e-24 -0.00544831679271 -6.42515747178e-24 5.03583377912e-23)
(0 0 0 -0.80606831718 -1.9179442999e-22 1.75609771914e-24 -0.0052117274874 -5.31299396861e-24 5.24678169617e-23)
(0 0 0 -0.881450461374 -1.76028760217e-22 1.43394784266e-24 -0.00497797676693 -4.33785233465e-24 5.41793900207e-23)
(0 0 0 -0.967364712302 -1.59618908549e-22 1.029011688e-24 -0.00474598889897 -3.48848669062e-24 5.54471081702e-23)
(0 0 0 -1.06607967956 -1.4281531897e-22 5.27579475141e-25 -0.00451437364222 -2.75647782729e-24 5.62215269776e-23)
(0 0 0 -1.18048481845 -1.25892742852e-22 -8.96960588818e-26 -0.00428137771635 -2.13730133903e-24 5.6448463238e-23)
(0 0 0 -1.31425524533 -1.0911244102e-22 -8.46024359942e-25 -0.0040447948878 -1.6201846733e-24 5.60654526914e-23)
(0 0 0 -1.47200255588 -9.27235800126e-23 -1.77242964455e-24 -0.00380180911507 -1.19569994485e-24 5.50003076434e-23)
(0 0 0 -1.65927411308 -7.69599346483e-23 -2.90907215989e-24 -0.00354872447053 -8.54462533212e-25 5.31658416066e-23)
(0 0 0 -1.88196886844 -6.20500326411e-23 -4.30496961795e-24 -0.00328049515299 -5.86672066239e-25 5.04575953073e-23)
(0 0 0 -2.1438958437 -4.82344593687e-23 -6.01104051157e-24 -0.00298990360437 -3.83311793907e-25 4.67520183813e-23)
(0 0 0 -2.43903542816 -3.57603842375e-23 -8.04728054111e-24 -0.00266620041308 -2.3547749463e-25 4.19154881015e-23)
(0 0 0 -2.73154937905 -2.48951675735e-23 -1.03005012133e-23 -0.0022935506184 -1.33333529106e-25 3.58466701511e-23)
(0 0 0 -2.92334014983 -1.59086723997e-23 -1.23216160072e-23 -0.00185346059684 -6.7157037099e-26 2.86038799423e-23)
(0 0 0 -2.86225393273 -9.02820347946e-24 -1.32514351468e-23 -0.00134666141122 -2.89345585356e-26 2.06562161934e-23)
(0 0 0 -2.46738480288 -4.34394979264e-24 -1.23795765991e-23 -0.000835105461442 -9.97915163873e-27 1.30115512735e-23)
(0 0 0 -1.82983113666 -1.64159475993e-24 -9.84375663197e-24 -0.000417800269514 -2.37837279939e-27 6.74796569253e-24)
(0 0 0 -1.10363803805 -4.13625800923e-25 -6.3025487973e-24 -0.000145113451476 -2.62778533777e-28 2.4487193097e-24)
(0 0 0 -0.459220306745 -4.68559355085e-26 -2.75754999427e-24 -1.57137112413e-05 -8.3328492059e-31 2.79349704563e-25)
(0 0 0 -0.00964178275103 4.04721916634e-23 -1.75670314925e-24 -0.028284219324 -5.92449806458e-25 9.69899354949e-23)
(0 0 0 -0.0283060125929 9.25100047529e-23 -4.99246300692e-24 -0.02830539688 -5.06801160149e-24 9.24805221083e-23)
(0 0 0 -0.0456690380377 1.42750269007e-22 -7.62635453808e-24 -0.028348994721 -1.3023341069e-23 8.45908763337e-23)
(0 0 0 -0.0616967904286 1.80008578512e-22 -9.55834452519e-24 -0.0284155308862 -2.33863189626e-23 7.44286505961e-23)
(0 0 0 -0.0765077050294 2.03302064022e-22 -1.07261347549e-23 -0.0285011791596 -3.52247581451e-23 6.30218154733e-23)
(5.58151738504e-15 5.909661401e-37 3.69353837562e-38 -0.0903120009123 2.1290478389e-22 -1.12214825319e-23 -0.0285970808275 -4.74479963671e-23 5.12880473496e-23)
(0 0 0 -0.103358267414 2.10155921972e-22 -1.10948104932e-23 -0.0286905955682 -5.94020220324e-23 3.99323653968e-23)
(0 -6.49200618411e-37 0 -0.115899013549 1.96667860539e-22 -1.04220344504e-23 -0.0287671728005 -7.04785546999e-23 2.94984261499e-23)
(0 0 0 -0.128173128609 1.7413160095e-22 -9.31909493778e-24 -0.0288120696375 -8.01271845254e-23 2.03912461195e-23)
(6.73573410401e-15 7.13173588755e-37 1.11433373243e-38 -0.14039927976 1.44779421957e-22 -7.8396921194e-24 -0.0288116561313 -8.82201702166e-23 1.28474556513e-23)
(0 0 0 -0.152775136808 1.10600044906e-22 -6.0794056032e-24 -0.0287543062452 -9.44577088428e-23 7.01302560968e-24)
(0 7.83450528608e-37 1.53017681369e-39 -0.165479232008 7.31253891705e-23 -4.10122187906e-24 -0.0286309492654 -9.88853310411e-23 2.94724091904e-24)
(0 8.21144789006e-37 4.00949604007e-40 -0.178673793673 3.42145266597e-23 -1.97128366544e-24 -0.0284353552816 -1.01410809947e-22 6.35047353457e-25)
(0 0 0 -0.192507822394 -4.61576057691e-24 2.53194640514e-25 -0.0281642102161 -1.0223637109e-22 1.11856675744e-26)
(0 0 0 -0.207120165936 -4.25369367968e-23 2.52315198198e-24 -0.0278170195373 -1.01568330589e-22 9.71475658593e-25)
(0 0 0 -0.222642573687 -7.85556372835e-23 4.78980274753e-24 -0.0273958727812 -9.9490039245e-23 3.3832582474e-24)
(0 0 0 -0.239202801372 -1.11826286722e-22 7.01458579181e-24 -0.0269050991555 -9.62518080509e-23 7.09510798918e-24)
(0 0 0 -0.256927861293 -1.41830201195e-22 9.16308249845e-24 -0.026350846 -9.20440352879e-23 1.19474483496e-23)
(0 0 0 -0.275947514561 -1.68226312467e-22 1.12043588409e-23 -0.0257406128125 -8.70910771635e-23 1.77740111085e-23)
(0 0 0 -0.296398097936 -1.90788793894e-22 1.31145197045e-23 -0.0250827734001 -8.15653484399e-23 2.44103595807e-23)
(0 0 0 -0.318426779933 -2.09410338803e-22 1.48652949047e-23 -0.0243861158377 -7.56793143828e-23 3.1695023795e-23)
(0 0 0 -0.342196355593 -2.24080980852e-22 1.64344303908e-23 -0.0236594246057 -6.95919325197e-23 3.94724318044e-23)
(0 0 0 -0.367890718902 -2.34935681636e-22 1.78133539753e-23 -0.0229111226273 -6.33832623495e-23 4.75935813639e-23)
(3.25116663421e-15 0 4.30288321279e-38 -0.395721200346 -2.42136317361e-22 1.89741199222e-23 -0.0221489838391 -5.72210165114e-23 5.59137666478e-23)
(0 0 0 -0.42593402551 -2.45764169621e-22 1.98837279248e-23 -0.0213799192152 -5.12484662432e-23 6.43054543138e-23)
(0 0 0 -0.458819247518 -2.46182587827e-22 2.05375291424e-23 -0.0206098335914 -4.54745093804e-23 7.2636720371e-23)
(0 0 0 -0.494721634776 -2.43669843727e-22 2.09014265143e-23 -0.0198435454611 -3.99961702515e-23 8.07901297858e-23)
(0 0 0 -0.534054168939 -2.38408621035e-22 2.09411892703e-23 -0.0190847593966 -3.48756917744e-23 8.86511060677e-23)
(-4.11225507825e-15 0 -5.44252427936e-38 -0.57731504503 -2.30764233195e-22 2.06399815354e-23 -0.0183360782169 -3.01059421668e-23 9.61112282213e-23)
(-4.31010855827e-15 0 -5.70438117983e-38 -0.625109387078 -2.21102690927e-22 1.99501143229e-23 -0.0175990424532 -2.57361166726e-23 1.03063577524e-22)
(0 0 0 -0.678177329742 -2.09682593013e-22 1.88305496437e-23 -0.0168741842311 -2.17700267925e-23 1.09407704324e-22)
(0 0 0 -0.737430708203 -1.9674754673e-22 1.72283274776e-23 -0.0161610834553 -1.82090621738e-23 1.15044613267e-22)
(0 0 0 -0.804001379558 -1.82634488365e-22 1.50776571968e-23 -0.0154584147592 -1.50499278273e-23 1.19873589356e-22)
(0 0 0 -0.879305157701 -1.67637505728e-22 1.23083946752e-23 -0.0147639729982 -1.22689423996e-23 1.23794134887e-22)
(0 0 0 -0.965126344298 -1.51996885064e-22 8.82230203287e-24 -0.0140746637649 -9.85184870305e-24 1.26700174677e-22)
(0 0 0 -1.06372830686 -1.35990932046e-22 4.49900519147e-24 -0.0133864409348 -7.77607739295e-24 1.28478440791e-22)
(0 0 0 -1.17799369056 -1.19878475366e-22 -8.18250729062e-25 -0.0126941646657 -6.01823328374e-24 1.29002194417e-22)
(0 -4.15378342337e-38 -8.30756684675e-38 -1.31158835745 -1.03889921241e-22 -7.33258455689e-24 -0.0119913368697 -4.55237092571e-24 1.28130729463e-22)
(0 0 0 -1.4691106979 -8.82733073918e-23 -1.53095299491e-23 -0.0112696382464 -3.35162272065e-24 1.2569524024e-22)
(0 0 0 -1.65608823031 -7.32510850449e-23 -2.50925659628e-23 -0.0105181291791 -2.38928226572e-24 1.21497664994e-22)
(0 0 0 -1.87838853895 -5.90439232047e-23 -3.70969747212e-23 -0.00972185798237 -1.63627483663e-24 1.15297756625e-22)
(0 0 0 -2.13976939126 -4.58870856427e-23 -5.17511653852e-23 -0.00885942602108 -1.06592841438e-24 1.06813363225e-22)
(1.98488038507e-15 6.56741829106e-39 5.25393463285e-38 -2.43413081675 -3.40101662433e-23 -6.92085186544e-23 -0.00789896204376 -6.51201552192e-25 9.57403064194e-23)
(0 0 0 -2.72554781999 -2.36608748632e-23 -8.84819878357e-23 -0.00679354845765 -3.65688068188e-25 8.18509594668e-23)
(0 0 0 -2.9160137217 -1.51073066079e-23 -1.0571181107e-22 -0.00548853837186 -1.83400348266e-25 6.52852387016e-23)
(0 0 0 -2.85400818506 -8.56894230299e-24 -1.13538402064e-22 -0.00398659548135 -7.86007316089e-26 4.71246209015e-23)
(0 0 0 -2.45952148842 -4.12086355461e-24 -1.05935618509e-22 -0.00247166184871 -2.68720635902e-26 2.96742506473e-23)
(0 0 0 -1.82372453047 -1.55632291517e-24 -8.41440309931e-23 -0.00123646043442 -6.33324707527e-27 1.5386155779e-23)
(0 0 0 -1.09992117784 -3.91868377099e-25 -5.38205854617e-23 -0.00042945267395 -6.86099650158e-28 5.58236686256e-24)
(0 0 0 -0.457678648756 -4.43404445557e-26 -2.35256512319e-23 -4.65039484937e-05 -1.91483032889e-30 6.36686051154e-25)
(0 0 0 -0.00965563248597 3.7002091886e-23 -4.57775890131e-24 -0.0456303437307 -8.92827866052e-25 1.4976935047e-22)
(0 0 0 -0.0283496087327 8.46053162233e-23 -1.29741279297e-23 -0.0456682419005 -7.65773324212e-24 1.42762809153e-22)
(0 0 0 -0.0457462075868 1.30571616559e-22 -1.97374812445e-23 -0.0457454054661 -1.9761146869e-23 1.30550868375e-22)
(0 0 0 -0.0618081656883 1.64586737414e-22 -2.46829558622e-23 -0.0458623366457 -3.55650702957e-23 1.14824880507e-22)
(0 0 0 -0.0766469453994 1.85781344125e-22 -2.77234752905e-23 -0.0460130402153 -5.35173251311e-23 9.7200066521e-23)
(0 0 0 -0.0904648778683 1.94471877593e-22 -2.89760951329e-23 -0.0461837985605 -7.21771506957e-23 7.9038454627e-23)
(6.13152648219e-15 6.49200618422e-37 8.11500773028e-38 -0.103503728253 1.9174168126e-22 -2.86425945892e-23 -0.0463549269035 -9.03421341903e-23 6.14986964689e-23)
(0 0 0 -0.116011073743 1.7917208134e-22 -2.69078758092e-23 -0.046503545546 -1.07203498732e-22 4.53858022925e-23)
(0 0 0 -0.128222875813 1.58525592587e-22 -2.40227222342e-23 -0.0466061848962 -1.22018829551e-22 3.13276601217e-23)
(0 0 0 -0.140356699654 1.31660230334e-22 -2.02116194148e-23 -0.0466408056355 -1.34288871994e-22 1.96990924206e-23)
(0 0 0 -0.152610698074 1.00342331184e-22 -1.56587478026e-23 -0.046588212872 -1.43854634562e-22 1.07237969291e-23)
(0 0 0 -0.16516524013 6.61872827756e-23 -1.05499478355e-23 -0.0464329682886 -1.50624907042e-22 4.48416455467e-24)
(0 0 0 -0.178185525681 3.07113368505e-23 -5.0549012443e-24 -0.0461639076188 -1.54571705509e-22 9.5157613933e-25)
(0 0 0 -0.191824438557 -4.82092206665e-24 6.81221093387e-25 -0.0457743434282 -1.5595727206e-22 2.05317050841e-26)
(0 0 0 -0.206225380771 -3.93731702418e-23 6.52668476459e-24 -0.0452620079595 -1.55003867278e-22 1.52378844025e-24)
(0 0 0 -0.221525066718 -7.20840026254e-23 1.23616801372e-23 -0.044628778561 -1.51937333371e-22 5.25443990299e-24)
(0 0 0 -0.237856355972 -1.0230794715e-22 1.80879234949e-23 -0.0438802244182 -1.4707902234e-22 1.09799005468e-23)
(0 0 0 -0.255351234504 -1.29551104438e-22 2.3617127108e-23 -0.0430250162711 -1.40737879652e-22 1.84519911605e-23)
(0 0 0 -0.274144058446 -1.53467264308e-22 2.88715016227e-23 -0.042074244338 -1.33244679644e-22 2.7416965581e-23)
(0 0 0 -0.294375169193 -1.73944756611e-22 3.37862900619e-23 -0.0410406919322 -1.24876259771e-22 3.76225777546e-23)
(5.91906212676e-15 6.26705079777e-37 3.9169067486e-38 -0.316194986729 -1.90924024747e-22 3.83017472994e-23 -0.039938110678 -1.15911710804e-22 4.88185157274e-23)
(0 0 0 -0.339768696838 -2.04185770431e-22 4.23621194776e-23 -0.0387805388193 -1.06599198589e-22 6.07763567244e-23)
(-6.50233326831e-15 0 -8.60576642545e-38 -0.365281671449 -2.13899580671e-22 4.59068893074e-23 -0.0375816953323 -9.71773275395e-23 7.32654714267e-23)
(0 0 0 -0.392945803425 -2.20467749431e-22 4.88971424116e-23 -0.0363544725891 -8.7789749955e-23 8.60569125285e-23)
(0 0 0 -0.423007002309 -2.23806903984e-22 5.12712777218e-23 -0.0351105391962 -7.86137434785e-23 9.89601857884e-23)
(-3.74337830515e-15 -3.96345594812e-37 -9.9086398703e-38 -0.455754190451 -2.24136733119e-22 5.29624582152e-23 -0.0338600545614 -6.97933100437e-23 1.11782246209e-22)
(3.92348396765e-15 4.15415023578e-37 1.03853755894e-37 -0.491530267445 -2.21926159227e-22 5.39152038649e-23 -0.0326114877523 -6.14028457671e-23 1.2432546222e-22)
(0 0 0 -0.530745684533 -2.17175270735e-22 5.40507417777e-23 -0.0313715269079 -5.35291708211e-23 1.36426548806e-22)
(-4.31010855851e-15 -4.56350494412e-37 -2.28175247206e-37 -0.573895507277 -2.10205354099e-22 5.32797853444e-23 -0.0301450614574 -4.62310409809e-23 1.47918597386e-22)
(-4.51748138955e-15 -2.39153473472e-37 -2.39153473472e-37 -0.621581167894 -2.01427194261e-22 5.15066453191e-23 -0.028935217033 -3.95359608346e-23 1.58634140672e-22)
(-4.73483157763e-15 -2.50659896622e-37 -2.50659896622e-37 -0.674538545032 -1.91035985689e-22 4.86274480824e-23 -0.0277434220687 -3.34475427466e-23 1.68422208104e-22)
(0 0 0 -0.733674599428 -1.79328168711e-22 4.45015914795e-23 -0.0265694860112 -2.79762828475e-23 1.77123183318e-22)
(0 0 0 -0.80011556838 -1.66501753779e-22 3.89685881654e-23 -0.0254116685857 -2.31111597663e-23 1.84587287757e-22)
(0 0 0 -0.875270672671 -1.52834623794e-22 3.18324821551e-23 -0.0242667189604 -1.88301235698e-23 1.90654707797e-22)
(2.85697995135e-15 7.56236296387e-38 1.51247259277e-37 -0.960916271238 -1.38608905615e-22 2.28436703867e-23 -0.0231298613157 -1.51082864242e-23 1.95161250016e-22)
(0 0 0 -1.05930583136 -1.24028302689e-22 1.1682413262e-23 -0.0219946960058 -1.19164862822e-23 1.97931035296e-22)
(0 0 0 -1.17330915475 -1.0933750208e-22 -2.04863038834e-24 -0.0208529717577 -9.21316021069e-24 1.98766915227e-22)
(0 -4.35363496247e-38 -1.74145398499e-37 -1.30657467675 -9.47618344811e-23 -1.88789980069e-23 -0.0196941571575 -6.96073213182e-24 1.97447779582e-22)
(0 0 0 -1.46367595301 -8.05252318154e-23 -3.949896511e-23 -0.0185046863928 -5.11927472324e-24 1.9371211024e-22)
(0 0 0 -1.65010321926 -6.68234407495e-23 -6.4784953781e-23 -0.0172666520767 -3.64328327117e-24 1.8725180408e-22)
(0 0 0 -1.87166517789 -5.38564060298e-23 -9.58163306012e-23 -0.0159555239503 -2.49155231745e-24 1.77695951594e-22)
(0 0 0 -2.13202347132 -4.18447302608e-23 -1.33685617916e-22 -0.0145361554334 -1.62044313842e-24 1.64606505095e-22)
(0 0 -2.20268715787e-37 -2.42492770089 -3.10025721667e-23 -1.78768655727e-22 -0.012956192628 -9.87779381809e-25 1.47515627923e-22)
(0 0 0 -2.7142916001 -2.15661343105e-23 -2.28481544518e-22 -0.0111386658343 -5.53304033663e-25 1.26074580217e-22)
(0 0 0 -2.90228252746 -1.37694713898e-23 -2.72817487895e-22 -0.00899439511179 -2.76957578491e-25 1.00515227479e-22)
(0 0 0 -2.8385689493 -7.80763613828e-24 -2.92806162359e-22 -0.00652932460086 -1.18402230329e-25 7.25249531586e-23)
(0 0 0 -2.44481130317 -3.75454662188e-24 -2.73034868915e-22 -0.00404641835412 -4.03405505612e-26 4.56603586391e-23)
(0 0 0 -1.81230645437 -1.41844086016e-24 -2.16798762638e-22 -0.00202391586917 -9.47199007812e-27 2.36766031247e-23)
(0 0 0 -1.09297248789 -3.57352797117e-25 -1.3865130575e-22 -0.000702942956377 -1.02004719393e-27 8.59181539483e-24)
(-5.64585454383e-18 -1.82427399217e-44 -1.19555620351e-39 -0.454796545734 -4.04766411705e-26 -6.06016764383e-23 -7.61204180017e-05 -2.81254802213e-30 9.80154653723e-25)
(0 0 0 -0.00967691715141 3.25666466118e-23 -8.26424416437e-24 -0.0616410757504 -1.11226043583e-24 1.88882367001e-22)
(0 0 0 -0.0284161338967 7.44412505634e-23 -2.33882567809e-23 -0.0616960324094 -9.55711936993e-24 1.80033297124e-22)
(0 0 0 -0.0458631330576 1.14839478151e-22 -3.55596553618e-23 -0.0618073865404 -2.46865470932e-23 1.64584457792e-22)
(0 0 0 -0.0619767886271 1.44680728735e-22 -4.44514194984e-23 -0.0619759990107 -4.44624837601e-23 1.44685381297e-22)
(0 0 0 -0.0768596362504 1.63183203555e-22 -4.99304664721e-23 -0.0621947475179 -6.6897006471e-23 1.22376283584e-22)
(0 0 0 -0.0907036401106 1.70644965597e-22 -5.2182974285e-23 -0.0624466296804 -9.02197248923e-23 9.94075668613e-23)
(0 0 0 -0.103741332996 1.68047375959e-22 -5.15404521231e-23 -0.0627066959369 -1.129719221e-22 7.72243200498e-23)
(0 0 0 -0.116213333421 1.56777306013e-22 -4.84052457202e-23 -0.0629453999564 -1.34015515195e-22 5.68957559364e-23)
(0 0 0 -0.128351133256 1.38409431371e-22 -4.31916967757e-23 -0.0631318555802 -1.52515135242e-22 3.91724015597e-23)
(0 0 0 -0.14037014484 1.14619073004e-22 -3.62948765619e-23 -0.0632364313281 -1.67922375001e-22 2.45523642313e-23)
(0 0 0 -0.152468420706 8.69777094373e-23 -2.80773524986e-23 -0.0632326230605 -1.79954658059e-22 1.33016060257e-23)
(0 0 0 -0.164828029107 5.69225585897e-23 -1.88765331087e-23 -0.0630983190216 -1.88501400902e-22 5.50929778695e-24)
(0 0 0 -0.177617433255 2.581253958e-23 -8.99458164581e-24 -0.0628165859909 -1.93600937572e-22 1.13654069363e-24)
(0 0 0 -0.190994103329 -5.24318860448e-24 1.30401384047e-24 -0.0623760728672 -1.95466299373e-22 3.44794928574e-26)
(0 0 0 -0.205107082865 -3.54035391372e-23 1.17843022368e-23 -0.0617710946857 -1.9437414096e-22 1.98217807882e-24)
(0 0 0 -0.220099478559 -6.39197452034e-23 2.22407448684e-23 -0.0610014414046 -1.90656788535e-22 6.71763184334e-24)
(0 0 0 -0.236110955903 -9.01971732392e-23 3.24959495746e-23 -0.0600719485707 -1.8469136922e-22 1.39398346715e-23)
(0 0 0 -0.253280366323 -1.13860543355e-22 4.23943663382e-23 -0.0589918700549 -1.76873034095e-22 2.33372616531e-23)
(0 0 0 -0.271748641633 -1.34636635868e-22 5.18023922457e-23 -0.0577740990443 -1.67583643001e-22 3.45911110092e-23)
(0 0 0 -0.291662088213 -1.52338408007e-22 6.05975804089e-23 -0.0564342898338 -1.57203148673e-22 4.73859937274e-23)
(0 0 0 -0.313176209632 -1.66935867844e-22 6.86908581006e-23 -0.0549899365 -1.46026043073e-22 6.14119842829e-23)
(0 0 0 -0.336460188979 -1.78461286645e-22 7.59849030965e-23 -0.0534594632097 -1.34369612154e-22 7.63740420674e-23)
(0 0 0 -0.361702176951 -1.86933365384e-22 8.23423620403e-23 -0.0518613753759 -1.22602232326e-22 9.19911581595e-23)
(0 0 0 -0.389115566766 -1.92497243375e-22 8.77035854354e-23 -0.05021351062 -1.10871845142e-22 1.07998459763e-22)
(0 0 0 -0.418946493468 -1.95338779176e-22 9.19927835002e-23 -0.0485324163848 -9.93407664489e-23 1.24140584457e-22)
(0 0 0 -0.451482883039 -1.95642432702e-22 9.50441542996e-23 -0.0468328671721 -8.8268551515e-23 1.40179072699e-22)
(0 0 0 -0.487065500524 -1.93624027778e-22 9.67607781497e-23 -0.045127521826 -7.77378917162e-23 1.55891006631e-22)
(0 0 0 -0.5261016196 -1.89485978267e-22 9.70444506773e-23 -0.0434267104274 -6.78054738453e-23 1.7105402288e-22)
(0 0 2.39153473485e-37 -0.569082172513 -1.83475210426e-22 9.5703530317e-23 -0.0417383318836 -5.85932983866e-23 1.85462533424e-22)
(0 0 0 -0.616603560096 -1.75828265882e-22 9.25699856799e-23 -0.0400678382578 -5.01297614399e-23 1.9891386282e-22)
(0 0 0 -0.669395741068 -1.66778656318e-22 8.7443131696e-23 -0.0384182782419 -4.24324626206e-23 2.11219005535e-22)
(0 0 0 -0.728358806003 -1.56545540773e-22 8.00758019681e-23 -0.0367903710976 -3.55078705075e-23 2.22170093727e-22)
(0 0 0 -0.794611008641 -1.453556996e-22 7.01817364415e-23 -0.0351825814644 -2.93403467677e-23 2.31580520459e-22)
(0 0 0 -0.869552166848 -1.33453626526e-22 5.73919912648e-23 -0.0335911635842 -2.39147427797e-23 2.39244356244e-22)
(0 0 0 -0.95494729991 -1.21050337857e-22 4.12674218033e-23 -0.032010139784 -1.91925111394e-23 2.44953453198e-22)
(0 0 0 -1.05303575326 -1.08337874048e-22 2.12295108767e-23 -0.0304311684245 -1.51388180987e-23 2.48480489727e-22)
(0 -4.35363496193e-38 -3.48290796954e-37 -1.16666904233 -9.55179219126e-23 -3.45245879226e-24 -0.0288432375689 -1.17073104032e-23 2.49579005911e-22)
(0 0 0 -1.29947084352 -8.28022648135e-23 -3.37302121756e-23 -0.0272320830122 -8.84828072468e-24 2.47961221658e-22)
(0 0 0 -1.45597949833 -7.03671751081e-23 -7.08396445961e-23 -0.0255791565576 -6.50874255593e-24 2.43300365001e-22)
(0 0 0 -1.64163246136 -5.83901537227e-23 -1.16357051938e-22 -0.0238598287391 -4.63178073486e-24 2.35201170096e-22)
(0 0 0 -1.86215518369 -4.70576308601e-23 -1.72224507564e-22 -0.0220402430236 -3.16655545251e-24 2.23193683564e-22)
(0 0 0 -2.12107359976 -3.65520585708e-23 -2.40400270965e-22 -0.0200718051431 -2.05889461185e-24 2.0672462677e-22)
(0 0 0 -2.41192557549 -2.70712343295e-23 -3.21531666189e-22 -0.0178821110536 -1.25590291634e-24 1.85205618259e-22)
(0 0 0 -2.69840036138 -1.88208149751e-23 -4.1087802757e-22 -0.0153649094755 -7.04490561761e-25 1.58208945444e-22)
(0 0 0 -2.88291902832 -1.20072640523e-23 -4.9032771205e-22 -0.012398025417 -3.52485893827e-25 1.26052775806e-22)
(0 0 0 -2.81682983508 -6.8040661588e-24 -5.25852459237e-22 -0.0089927738268 -1.50729329331e-25 9.08951451749e-23)
(6.57844621409e-16 2.72078158451e-40 6.96520085635e-38 -2.42412737241 -3.27117115445e-24 -4.90053612945e-22 -0.00556973323213 -5.13912433024e-26 5.7210597789e-23)
(0 0 0 -1.79626425051 -1.2359089182e-24 -3.8903700762e-22 -0.00278520837999 -1.20722208887e-26 2.96695292919e-23)
(0 0 0 -1.08321202993 -3.11412743367e-25 -2.48821841862e-22 -0.00096733039606 -1.30243018599e-27 1.07697545868e-23)
(0 0 0 -0.450748284885 -3.52782500316e-26 -1.08770832376e-22 -0.000104752720323 -3.64405818705e-30 1.22906458714e-24)
(0 0 0 -0.00970434003178 2.75763514387e-23 -1.24325030868e-23 -0.0764387800062 -1.2497053472e-24 2.13312483855e-22)
(0 0 0 -0.0285017584847 6.30319931063e-23 -3.52007516852e-23 -0.0765071597506 -1.07335755558e-23 2.03294857942e-22)
(0 0 0 -0.0460138128526 9.72090180348e-23 -5.3512459774e-23 -0.0766463592011 -2.77282273654e-23 1.85783628636e-22)
(0 0 0 -0.0621955271463 1.22370307143e-22 -6.68851343489e-23 -0.0768590161151 -4.99413818322e-23 1.63194118333e-22)
(0 0 0 -0.0771394583815 1.37864617034e-22 -7.5125788027e-23 -0.0771388247313 -7.51255582538e-23 1.37865346091e-22)
(0 0 0 -0.0910255326205 1.43939042343e-22 -7.84844188232e-23 -0.0774677709294 -1.01303647719e-22 1.11814779568e-22)
(0 0 0 -0.104075171578 1.41430284484e-22 -7.74691343122e-23 -0.0778179450928 -1.2683609382e-22 8.66769549567e-23)
(0 0 0 -0.116520214362 1.31589358245e-22 -7.26893311586e-23 -0.0781552019447 -1.50454232294e-22 6.36779283881e-23)
(0 0 0 -0.128586049865 1.15789036875e-22 -6.4783308994e-23 -0.0784428819693 -1.71222548568e-22 4.3679787713e-23)
(0 0 0 -0.140484541366 9.54387021336e-23 -5.43574021833e-23 -0.0786448698062 -1.8853001484e-22 2.72354201612e-23)
(0 0 0 -0.152412503378 7.19018395123e-23 -4.19714531487e-23 -0.0787278724731 -2.02037853748e-22 1.46375611746e-23)
(0 0 0 -0.164552844291 4.64596268875e-23 -2.81278110899e-23 -0.0786630264043 -2.11677137927e-22 5.97116984873e-24)
(0 0 0 -0.177076739052 2.02124356619e-23 -1.32862145496e-23 -0.0784269748901 -2.17509958089e-22 1.17154366281e-24)
(0 0 0 -0.190146035648 -5.94032861902e-24 2.14364664587e-24 -0.0780025251274 -2.19731984075e-22 5.73257535605e-26)
(0 0 0 -0.203915586248 -3.12102680725e-23 1.78246405993e-23 -0.0773789550292 -2.18583346075e-22 2.36723392546e-24)
(0 0 0 -0.21853545227 -5.49915594656e-23 3.34488369465e-23 -0.0765520117129 -2.14516625556e-22 7.78649716121e-24)
(0 0 0 -0.234153060483 -7.68657996716e-23 4.87531333058e-23 -0.0755236325839 -2.07975648415e-22 1.5972090603e-23)
(0 0 0 -0.250915444364 -9.64939100743e-23 6.3517586755e-23 -0.0743014180661 -1.99320982818e-22 2.65635567899e-23)
(0 0 0 -0.268971726206 -1.1366198613e-22 7.75435068392e-23 -0.072897893004 -1.8900840953e-22 3.92038157002e-23)
(0 0 0 -0.288475999969 -1.28240974563e-22 9.0657078908e-23 -0.0713296021954 -1.77445201696e-22 5.35351450711e-23)
(-6.5023332683e-15 -6.88461314035e-37 0 -0.309590771977 -1.40204562852e-22 1.02705783903e-22 -0.0696160958918 -1.65007320952e-22 6.92237768647e-23)
(0 0 0 -0.332491116978 -1.49675267388e-22 1.13553287085e-22 -0.0677788651865 -1.52024456448e-22 8.59274379476e-23)
(3.57154030711e-15 3.78151539072e-37 1.89075769536e-37 -0.357369715591 -1.56598053146e-22 1.23057250657e-22 -0.065840288955 -1.38810026185e-22 1.03348882876e-22)
(-3.74337830511e-15 -3.96345594808e-37 -1.98172797404e-37 -0.384442963752 -1.61023199836e-22 1.31085755838e-22 -0.0638226476153 -1.25621043393e-22 1.21203598255e-22)
(0 0 0 -0.413958391801 -1.63282355313e-22 1.37483505744e-22 -0.0617472495968 -1.12689856245e-22 1.39198522516e-22)
(4.11225507827e-15 0 4.35401942351e-37 -0.446203707928 -1.63515551792e-22 1.42098907412e-22 -0.0596337020921 -1.00193836842e-22 1.57075201363e-22)
(4.31010855843e-15 2.28175247202e-37 0 -0.481517898655 -1.61745834776e-22 1.4474652641e-22 -0.057499342194 -8.82846480766e-23 1.74598178322e-22)
(0 0 0 -0.520304984563 -1.58177888782e-22 1.45216175886e-22 -0.0553588300481 -7.70806397013e-23 1.91527044187e-22)
(0 0 0 -0.563051263994 -1.53123008884e-22 1.43280970495e-22 -0.0532238912194 -6.66568805872e-23 2.07618597145e-22)
(0 0 0 -0.61034719803 -1.46733104183e-22 1.38693824378e-22 -0.051103186108 -5.70542217525e-23 2.22662313367e-22)
(0 0 0 -0.662915524406 -1.39176647123e-22 1.31110671199e-22 -0.0490022758715 -4.83201978035e-23 2.36425410867e-22)
(0 0 0 -0.721647774224 -1.30665144787e-22 1.20160185745e-22 -0.0469236496751 -4.04597995281e-23 2.48700968162e-22)
(0 0 0 -0.787652123574 -1.2134352257e-22 1.05421806559e-22 -0.044866774525 -3.34510858219e-23 2.59264793966e-22)
(-2.99443821099e-15 0 0 -0.86231643514 -1.11410301973e-22 8.63261924539e-23 -0.0428281253237 -2.72808032707e-23 2.67890003763e-22)
(0 0 0 -0.947391269006 -1.01067566413e-22 6.22054799444e-23 -0.0408011466096 -2.19082765721e-23 2.7433528373e-22)
(0 0 0 -1.0450979651 -9.04734506735e-23 3.22000782336e-23 -0.0387760854798 -1.72898791018e-23 2.78342162119e-22)
(0 0 0 -1.15826476509 -7.97867716511e-23 -4.79910792972e-24 -0.0367396108629 -1.33770786891e-23 2.79626618516e-22)
(0 0 0 -1.2904839115 -6.91715662414e-23 -5.02209900916e-23 -0.0346740867334 -1.01136351877e-23 2.77862088545e-22)
(0 0 0 -1.44624914728 -5.87759278071e-23 -1.05919836621e-22 -0.0325562747775 -7.4393435186e-24 2.7267496977e-22)
(0 0 0 -1.63093121797 -4.87604059963e-23 -1.74286668537e-22 -0.0303550617526 -5.29548224575e-24 2.63614530459e-22)
(0 0 0 -1.85015053803 -3.92876372016e-23 -2.58215285582e-22 -0.0280274684119 -3.6206790214e-24 2.50144720237e-22)