/*--------------------------------*- C++ -*----------------------------------*\
| =========                 |                                                 |
| \\      /  F ield         | OpenFOAM: The Open Source CFD Toolbox           |
|  \\    /   O peration     | Version:  3.0.1                                 |
|   \\  /    A nd           | Web:      www.OpenFOAM.org                      |
|    \\/     M anipulation  |                                                 |
\*---------------------------------------------------------------------------*/
FoamFile
{
    version     2.0;
    format      ascii;
    class       surfaceScalarField;
    location    "50000";
    object      phi;
}
// * * * * * * * * * * * * * * * * * * * * * * * * * * * * * * * * * * * * * //

dimensions      [0 3 -1 0 0 0 0];

internalField   nonuniform List<scalar> 
4900
(
6.70328318643e-16
-6.6939398303e-16
1.29424964642e-15
-6.23928500955e-16
1.86351640613e-15
-5.69508671861e-16
2.37310929167e-15
-5.09675117209e-16
2.82067280993e-15
-4.47458890254e-16
3.20583216824e-15
-3.85285546302e-16
3.53009931677e-15
-3.24355997744e-16
3.79624631767e-15
-2.6616921838e-16
4.00732305033e-15
-2.11154536952e-16
4.16733178277e-15
-1.5995862986e-16
4.28016558422e-15
-1.12873556919e-16
4.35006681693e-15
-6.98801531102e-17
4.38093977012e-15
-3.10912581015e-17
4.37725078645e-15
3.71965177244e-18
4.34262252874e-15
3.45839264712e-17
4.28092106135e-15
6.17444388088e-17
4.19548841348e-15
8.53785468153e-17
4.08969502576e-15
1.05754073548e-16
3.96656795087e-15
1.23103647995e-16
3.82887693302e-15
1.37671286691e-16
3.67916025187e-15
1.49691757931e-16
3.51972867014e-15
1.59391559449e-16
3.35269759171e-15
1.66986247003e-16
3.1799796568e-15
1.72700838331e-16
3.00327626315e-15
1.76702914825e-16
2.82408611969e-15
1.79178706564e-16
2.6438224701e-15
1.80290748655e-16
2.46362213953e-15
1.80177663239e-16
2.28463711729e-15
1.78981401149e-16
2.10782633765e-15
1.76825016047e-16
1.93403211554e-15
1.73814269276e-16
1.76400470872e-15
1.70045869922e-16
1.59842590939e-15
1.65602788132e-16
1.43788956182e-15
1.60557063638e-16
1.28293115581e-15
1.54968360331e-16
1.13405670772e-15
1.48883579012e-16
9.91733171421e-16
1.42335635702e-16
8.56406175024e-16
1.35340529819e-16
7.2851608626e-16
1.27896486346e-16
6.08531128729e-16
1.19974482097e-16
4.97004372716e-16
1.11515649218e-16
3.94576992537e-16
1.02418035208e-16
3.02053135274e-16
9.25275522172e-17
2.20404011382e-16
8.16427489464e-17
1.50814192364e-16
6.95854670715e-17
9.4396751389e-17
5.64215809865e-17
5.1667407311e-17
4.27264301047e-17
2.23113542697e-17
2.93581082597e-17
5.43783031092e-18
1.68738295125e-17
5.43747593544e-18
6.2421508452e-16
-1.29366145198e-15
1.2056121059e-15
-1.20529944586e-15
1.73607060665e-15
-1.09989125637e-15
2.21072182988e-15
-9.84404946291e-16
2.62748647769e-15
-8.64281764172e-16
2.98607626911e-15
-7.44006794809e-16
3.28797876096e-15
-6.26353286549e-16
3.53571122884e-15
-5.13771693494e-16
3.73212683151e-15
-4.07581895536e-16
3.88065808248e-15
-3.08759807058e-16
3.98550877648e-15
-2.17706843895e-16
4.0502463833e-15
-1.34712078989e-16
4.07881446612e-15
-5.9767968473e-17
4.07518890557e-15
7.38956337074e-18
4.04280588588e-15
6.69475152374e-17
3.98517627928e-15
1.19331408989e-16
3.90556602095e-15
1.64942925625e-16
3.80703085597e-15
2.04255866596e-16
3.69237186445e-15
2.37727318708e-16
3.56417135559e-15
2.65829434657e-16
3.42479769715e-15
2.89021530362e-16
3.2764149882e-15
3.07739733936e-16
3.12100611701e-15
3.22412729057e-16
2.96021001927e-15
3.33432116855e-16
2.79576672479e-15
3.41167266686e-16
2.62898161206e-15
3.45944119447e-16
2.46115056881e-15
3.48096193344e-16
2.2934440037e-15
3.47889814641e-16
2.1268737442e-15
3.45591898188e-16
1.96229500307e-15
3.41438169916e-16
1.80048890288e-15
3.35635845676e-16
1.64218373527e-15
3.28371534915e-16
1.48800605151e-15
3.19801736679e-16
1.3385067698e-15
3.1006644968e-16
1.19420349489e-15
2.99280805895e-16
1.05556178958e-15
2.87535055515e-16
9.2301156797e-16
2.74892740447e-16
7.97003165464e-16
2.61384978126e-16
6.77897002735e-16
2.47004196679e-16
5.66185201577e-16
2.3169871331e-16
4.62361275432e-16
2.15351970182e-16
3.67008202431e-16
1.97767610275e-16
2.8086717831e-16
1.78648973374e-16
2.04893576577e-16
1.57609896978e-16
1.40165324447e-16
1.34308705211e-16
8.77102181427e-17
1.08879456893e-16
4.79986677219e-17
8.2437471922e-17
2.0719414501e-17
5.66363693003e-17
5.04754103418e-18
3.25471029685e-17
1.04848614802e-17
5.69460641101e-16
-1.86320657863e-15
1.10000604541e-15
-1.73578310028e-15
1.58401925783e-15
-1.58385476495e-15
2.01705068983e-15
-1.4173777844e-15
2.39703936123e-15
-1.24432142784e-15
2.7238686958e-15
-1.07086626133e-15
2.99878424749e-15
-9.01402290895e-16
3.2240555395e-15
-7.39100826484e-16
3.40254405157e-15
-5.86118931843e-16
3.53751545578e-15
-4.43723306137e-16
3.63249813443e-15
-3.12636450388e-16
3.69101807858e-15
-1.93186534905e-16
3.71663472908e-15
-8.53308970741e-17
3.71283998823e-15
1.12292389571e-17
3.68288759813e-15
9.68514263005e-17
3.63003774325e-15
1.72133754579e-16
3.55725090259e-15
2.37678541891e-16
3.46730114405e-15
2.94154474344e-16
3.36274524781e-15
3.42248641225e-16
3.24591174549e-15
3.82621989399e-16
3.11890308385e-15
4.15931360654e-16
2.98379855733e-15
4.42835401584e-16
2.84236048069e-15
4.63923099648e-16
2.69602132951e-15
4.79746608877e-16
2.54630267961e-15
4.90863628792e-16
2.39457804245e-15
4.97748012738e-16
2.24175699695e-15
5.00837614641e-16
2.08907271833e-15
5.00557812028e-16
1.93746785193e-15
4.97276345837e-16
1.78766685534e-15
4.91317926521e-16
1.64039334569e-15
4.82985405701e-16
1.49621406919e-15
4.72545515569e-16
1.35577470704e-15
4.60230285844e-16
1.21959254372e-15
4.46238925772e-16
1.08811730863e-15
4.30735734448e-16
9.61812101677e-16
4.13849671908e-16
8.41026862619e-16
3.95667816014e-16
7.26170209429e-16
3.76237032988e-16
6.17637384992e-16
3.55546242297e-16
5.15811029282e-16
3.33517546982e-16
4.21180831815e-16
3.09984239655e-16
3.34288382381e-16
2.84662769161e-16
2.55818578601e-16
2.5712642841e-16
1.86602272179e-16
2.26820277888e-16
1.27647921184e-16
1.93259258173e-16
7.98781652908e-17
1.56646827639e-16
4.37190148187e-17
1.18595804989e-16
1.88785243919e-17
8.14784807627e-17
4.6005965115e-18
4.68256414985e-17
1.5086759732e-17
5.09737673374e-16
-2.37297431595e-15
9.8451416661e-16
-2.21053260966e-15
1.41751642266e-15
-2.01690049343e-15
1.80477399622e-15
-1.80466319861e-15
2.14437895751e-15
-1.58403369455e-15
2.43623630518e-15
-1.36281999801e-15
2.6814933554e-15
-1.14674536637e-15
2.88217637091e-15
-9.39854027689e-16
3.0408853668e-15
-7.44850778089e-16
3.16060689096e-15
-5.63423587025e-16
3.24450812939e-15
-3.96503508635e-16
3.29581213482e-15
-2.44457767997e-16
3.31778460699e-15
-1.07261362298e-16
3.31351597524e-15
1.54512527255e-17
3.28605300496e-15
1.24264001301e-16
3.23823322647e-15
2.19904538334e-16
3.17273284679e-15
3.03127215862e-16
3.09211000916e-15
3.74829701694e-16
2.99845982213e-15
4.35850811216e-16
2.89398607818e-15
4.8706379873e-16
2.78062216557e-15
5.29315618727e-16
2.66003733199e-15
5.63424066618e-16
2.533812282e-15
5.90155420821e-16
2.40336826982e-15
6.10212182847e-16
2.26991678502e-15
6.24291382662e-16
2.13463761489e-15
6.33006454279e-16
1.99853010829e-15
6.36920339611e-16
1.86250791594e-15
6.36558080725e-16
1.72737267414e-15
6.32391265232e-16
1.59383437131e-15
6.24831531377e-16
1.4625770243e-15
6.14267833707e-16
1.33407442372e-15
6.01023160403e-16
1.2089202122e-15
5.85397017929e-16
1.08753659142e-15
5.67635861701e-16
9.70334102879e-16
5.47948335394e-16
8.57699268795e-16
5.26496405466e-16
7.49993630833e-16
5.03392418786e-16
6.47551948221e-16
4.78691350782e-16
5.50720488929e-16
4.52379660956e-16
4.59869598585e-16
4.24357287191e-16
3.75437267627e-16
3.94411161798e-16
2.97919862551e-16
3.62179116903e-16
2.27934332142e-16
3.27118305728e-16
1.66224762609e-16
2.88524101919e-16
1.136897188e-16
2.45789536153e-16
7.11438926161e-17
1.99191510136e-16
3.89353162984e-17
1.50793538062e-16
1.68147709891e-17
1.03600930889e-16
4.09794054469e-18
5.95423326008e-17
1.91843741683e-17
4.47567812022e-16
-2.82048978152e-15
8.64327424222e-16
-2.62738856305e-15
1.24440837966e-15
-2.39691625961e-15
1.58409633284e-15
-2.14430203433e-15
1.88170571837e-15
-1.88165077196e-15
2.1371353706e-15
-1.61827876659e-15
2.35137702544e-15
-1.36104502201e-15
2.52628253006e-15
-1.11479281682e-15
2.66420496259e-15
-8.82762869036e-16
2.76780678324e-15
-6.66990701671e-16
2.83992326683e-15
-4.68591654542e-16
2.88347607634e-15
-2.87974840397e-16
2.90135517642e-15
-1.25091463794e-16
2.89637625342e-15
2.04723572047e-17
2.87114159824e-15
1.49450550605e-16
2.82825113149e-15
2.62749204215e-16
2.77011943585e-15
3.6130216292e-16
2.6988607685e-15
4.46127067981e-16
2.61638504666e-15
5.18275616208e-16
2.52465794029e-15
5.78806981344e-16
2.42529325233e-15
6.28716495049e-16
2.31973796981e-15
6.68970528785e-16
2.20931706332e-15
7.0049742023e-16
2.09540053112e-15
7.24160327491e-16
1.97891697782e-15
7.40749321619e-16
1.86084473628e-15
7.50998102813e-16
1.74214596551e-15
7.55591042597e-16
1.62359342786e-15
7.55132084821e-16
1.50579083977e-15
7.50171352906e-16
1.38944158797e-15
7.4120765981e-16
1.27504543201e-15
7.2868656085e-16
1.16305890936e-15
7.12996371058e-16
1.05396374574e-15
6.94487457421e-16
9.48157824322e-16
6.73450916331e-16
8.45983631162e-16
6.50129536289e-16
7.47767869029e-16
6.24712532404e-16
6.53824810665e-16
5.97331134795e-16
5.64457768276e-16
5.68046528516e-16
4.79984434335e-16
5.36841774367e-16
4.00734394579e-16
5.03595460166e-16
3.27087214057e-16
4.68053490558e-16
2.59486729632e-16
4.29784201203e-16
1.9845011325e-16
3.88141324508e-16
1.44680453506e-16
3.42293828386e-16
9.89353080297e-17
2.91533846875e-16
6.19095436291e-17
2.36217001679e-16
3.38941484302e-17
1.78807957342e-16
1.46409552481e-17
1.22852977839e-16
3.5710016125e-18
7.0614129108e-17
2.27545662081e-17
3.85321090472e-16
-3.20563022812e-15
7.44070294146e-16
-2.9859110996e-15
1.07093690753e-15
-2.72368645501e-15
1.36287918578e-15
-2.43615437562e-15
1.61833325187e-15
-2.13706478061e-15
1.83717684905e-15
-1.83712831835e-15
2.02029009473e-15
-1.54417565271e-15
2.16928080726e-15
-1.26378938858e-15
2.28621831824e-15
-9.99686980616e-16
2.37349498146e-15
-7.54215591669e-16
2.43359063593e-15
-5.28650568393e-16
2.46903447783e-15
-3.23490046176e-16
2.48235462068e-15
-1.38599371079e-16
2.47631954593e-15
2.65596190884e-17
2.45314607471e-15
1.72781512878e-16
2.41491759107e-15
3.01026377416e-16
2.36376301856e-15
4.12493125057e-16
2.30159690861e-15
5.08344802939e-16
2.23010192133e-15
5.89796217999e-16
2.15082167063e-15
6.58047956612e-16
2.06522113765e-15
7.14293310157e-16
1.9745522109e-15
7.59606605733e-16
1.87997104272e-15
7.95060509845e-16
1.78251643408e-15
8.21621594489e-16
1.68302213986e-15
8.40217205365e-16
1.58238415697e-15
8.51670545859e-16
1.48125192902e-15
8.56737103515e-16
1.3802797009e-15
8.56114690846e-16
1.28001379092e-15
8.50417327896e-16
1.18103866616e-15
8.4022090989e-16
1.08368689985e-15
8.26004602334e-16
9.88456170694e-16
8.08223342104e-16
8.95697837035e-16
7.87257127279e-16
8.05722662037e-16
7.63433813369e-16
7.18838931451e-16
7.37024161128e-16
6.35325629109e-16
7.08238671522e-16
5.55423365595e-16
6.77222160624e-16
4.79418046862e-16
6.44042029922e-16
4.07571047762e-16
6.0867717541e-16
3.40185943148e-16
5.7098534839e-16
2.77563659967e-16
5.30674281383e-16
2.20088915786e-16
4.87252575012e-16
1.68238662817e-16
4.39987794254e-16
1.22599078251e-16
3.87941557283e-16
8.38054499709e-17
3.30328619773e-16
5.24379564451e-17
2.67587495092e-16
2.87114335838e-17
2.02532604433e-16
1.24077070154e-17
1.39158541424e-16
3.02552425144e-18
7.99944295706e-17
2.57803878481e-17
3.24384355812e-16
-3.53004150466e-15
6.26424347349e-16
-3.28791597509e-15
9.01393229249e-16
-2.99872037288e-15
1.14677023545e-15
-2.6814336701e-15
1.36107249339e-15
-2.35131272163e-15
1.54420172171e-15
-2.02024913087e-15
1.69688505578e-15
-1.69685739304e-15
1.82052460414e-15
-1.3874008421e-15
1.91689787357e-15
-1.09601984696e-15
1.98806232395e-15
-8.25343805514e-16
2.03622368777e-15
-5.76772475465e-16
2.06362623908e-15
-3.50878687882e-16
2.07253299752e-15
-1.4747799495e-16
2.06513141603e-15
3.40098992789e-17
2.04343976742e-15
1.94504290861e-16
2.00939102561e-15
3.35110359681e-16
1.96476172983e-15
4.57162633274e-16
1.9111133175e-15
5.61974747376e-16
1.84999306918e-15
6.50941355204e-16
1.78268359893e-15
7.25381187477e-16
1.71034078023e-15
7.86617905575e-16
1.63404499656e-15
8.35881394127e-16
1.55471133064e-15
8.74355788228e-16
1.47324727202e-15
9.03105731227e-16
1.39028089221e-15
9.23161834475e-16
1.3065086834e-15
9.35424051572e-16
1.22249768464e-15
9.40732161947e-16
1.13874832154e-15
9.39842935661e-16
1.05569961785e-15
9.33435886769e-16
9.73729733033e-16
9.22127258338e-16
8.93270603894e-16
9.06454565122e-16
8.14607251384e-16
8.86894150159e-16
7.38007456992e-16
8.63864040699e-16
6.63735310869e-16
8.37714939013e-16
5.92027696263e-16
8.08739320199e-16
5.23102476706e-16
7.77161747006e-16
4.57153098307e-16
7.43137236095e-16
3.94453685663e-16
7.06736695451e-16
3.35195422035e-16
6.67930749513e-16
2.79629098029e-16
6.26557179773e-16
2.28015684344e-16
5.82293138437e-16
1.80677629497e-16
5.34595717626e-16
1.3800120467e-16
4.82660349939e-16
1.00476048365e-16
4.25463080452e-16
6.86496739905e-17
3.62165849717e-16
4.29424662341e-17
2.93292759847e-16
2.35155332353e-17
2.21957723735e-16
1.01657471692e-17
1.52509636295e-16
2.48143325213e-18
8.76792319008e-17
2.82621792668e-17
2.6616693782e-16
-3.79608441748e-15
5.13843642576e-16
-3.53552899557e-15
7.39117312095e-16
-3.22397346554e-15
9.39871171486e-16
-2.88209971728e-15
1.11480811212e-15
-2.52623139032e-15
1.26379910642e-15
-2.1692489365e-15
1.38741933365e-15
-1.8204905414e-15
1.48682423639e-15
-1.48680209234e-15
1.56353263975e-15
-1.17269000187e-15
1.61928476189e-15
-8.81056998152e-16
1.65596568327e-15
-6.13432169214e-16
1.67553296193e-15
-3.70406494995e-16
1.67992071005e-15
-1.51826395212e-16
1.67099544167e-15
4.29727087922e-17
1.65053244048e-15
2.14994095316e-16
1.62018022815e-15
3.65496641746e-16
1.58144640803e-15
4.95933311997e-16
1.53569314159e-15
6.07750757082e-16
1.48413423449e-15
7.0247983946e-16
1.42789042649e-15
7.81599219757e-16
1.36790084569e-15
8.46533290687e-16
1.30503057341e-15
8.98668313752e-16
1.24007821779e-15
9.39255597957e-16
1.17377970102e-15
9.69481336863e-16
1.10651506802e-15
9.90430715515e-16
1.03882965336e-15
1.00308878174e-15
9.71168569277e-16
1.00836996945e-15
9.03920603789e-16
1.00707688137e-15
8.37454908879e-16
9.99943000917e-16
7.71954529824e-16
9.87605034809e-16
7.07718938504e-16
9.70654189752e-16
6.45041106953e-16
9.49585448469e-16
5.84060523244e-16
9.24836138575e-16
5.24988229552e-16
8.96779218456e-16
4.68001916327e-16
8.65719546131e-16
4.13266711973e-16
8.31888931866e-16
3.60954125644e-16
7.95448020685e-16
3.11253719703e-16
7.56464050383e-16
2.64253438475e-16
7.14898170959e-16
2.20236265941e-16
6.70577757619e-16
1.79387670679e-16
6.23147522376e-16
1.41988862875e-16
5.72023815644e-16
1.08305319724e-16
5.16341350485e-16
7.87480194025e-17
4.55015647008e-16
5.37369180419e-17
3.87177047509e-16
3.35984589294e-17
3.13438627151e-16
1.83989422373e-17
2.37160459745e-16
7.95712736376e-18
1.62955717575e-16
1.94291707191e-18
9.36931269205e-17
3.02047197718e-17
2.11173700216e-16
-4.00716429804e-15
4.07596139125e-16
-3.73193011219e-15
5.8611999095e-16
-3.40245610396e-15
7.44857223042e-16
-3.040793834e-15
8.82769853582e-16
-2.66415144897e-15
9.99694607296e-16
-2.28618694837e-15
1.09603709462e-15
-1.91685284036e-15
1.17271791739e-15
-1.56350661555e-15
1.23098168601e-15
-1.23094692299e-15
1.27227105747e-15
-9.22325325231e-16
1.29816119912e-15
-6.39318512084e-16
1.31030230005e-15
-3.82541011666e-16
1.3103487052e-15
-1.51846819452e-16
1.29988196613e-15
5.34594748301e-17
1.28039495158e-15
2.34500781549e-16
1.253279124e-15
3.92643127428e-16
1.21979844637e-15
5.29430936178e-16
1.18112342727e-15
6.46438754578e-16
1.13828681768e-15
7.45341496093e-16
1.09217889083e-15
8.27733375353e-16
1.04358868272e-15
8.95148975148e-16
9.93168378042e-16
9.49094033888e-16
9.41457676449e-16
9.90890770165e-16
8.8910307292e-16
1.02186077658e-15
8.36394926522e-16
1.04312065007e-15
7.83718197854e-16
1.05574350098e-15
7.31373965426e-16
1.06069378948e-15
6.79605197803e-16
1.05881985376e-15
6.28627361529e-16
1.05088584039e-15
5.78653499727e-16
1.03757100577e-15
5.2979705733e-16
1.01947152122e-15
4.82258824256e-16
9.97115383575e-16
4.36144857792e-16
9.7094625598e-16
3.91570489258e-16
9.4134979311e-16
3.48626293724e-16
9.08635123187e-16
3.07481716302e-16
8.73042165063e-16
2.68196275014e-16
8.34723225602e-16
2.30931157232e-16
7.93747911614e-16
1.9577035952e-16
7.50064378955e-16
1.62863304153e-16
7.03484081074e-16
1.3239015627e-16
6.53630754429e-16
1.04523285029e-16
5.9988530126e-16
7.9556231387e-17
5.41341830183e-16
5.77101863847e-17
4.76867100199e-16
3.93076338137e-17
4.05585714816e-16
2.4544004763e-17
3.28200756677e-16
1.34367119298e-17
2.48269687416e-16
5.8102077826e-18
1.70581727756e-16
1.41976897014e-18
9.80839134372e-17
3.16244188008e-17
1.5997786533e-16
-4.16713988112e-15
3.08739497284e-16
-3.88056761918e-15
4.43726314304e-16
-3.53742648811e-15
5.63413157535e-16
-3.16052943984e-15
6.66980262678e-16
-2.76775161684e-15
7.5421860645e-16
-2.37346369693e-15
8.25356552462e-16
-1.98801316058e-15
8.81085902733e-16
-1.61925466931e-15
9.22361920187e-16
-1.27223258914e-15
9.50348189175e-16
-9.50315469206e-16
9.66339835302e-16
-6.55288202718e-16
9.71678182597e-16
-3.87851888941e-16
9.67680453601e-16
-1.4782989365e-16
9.55685095732e-16
6.54654744998e-17
9.36972924818e-16
2.5323343099e-16
9.12706313742e-16
4.16939411128e-16
8.83910155219e-16
5.5820539974e-16
8.51602889253e-16
6.78772324809e-16
8.16539720138e-16
7.80373294515e-16
7.79503336496e-16
8.64738566246e-16
7.41148780578e-16
9.33522336881e-16
7.01886520693e-16
9.88276701093e-16
6.62305690187e-16
1.03049166808e-15
6.2265460066e-16
1.06148498656e-15
5.83203669397e-16
1.08250163132e-15
5.44296205252e-16
1.0946752763e-15
5.05996358101e-16
1.09896922149e-15
4.68497718054e-16
1.09630728693e-15
4.31916523957e-16
1.08746982491e-15
3.96333316877e-16
1.07316787779e-15
3.61802265262e-16
1.05400563457e-15
3.28380403715e-16
1.03052577874e-15
2.96156355968e-16
1.00317959274e-15
2.65167625323e-16
9.72351403115e-16
2.35442852694e-16
9.38351202674e-16
2.07057849651e-16
9.01420474206e-16
1.80072969902e-16
8.61706031406e-16
1.54545994687e-16
8.19270725222e-16
1.30546451716e-16
7.74052103375e-16
1.08188498318e-16
7.2584741054e-16
8.75646241579e-17
6.74258974244e-16
6.88097766817e-17
6.18643945449e-16
5.20814146315e-17
5.5806524701e-16
3.75793059106e-17
4.91367543741e-16
2.54689057137e-17
4.17686165294e-16
1.58561445679e-17
3.37815994367e-16
8.66383452637e-18
2.55460167487e-16
3.74155179981e-18
1.75502741187e-16
9.12859958772e-19
1.00912736442e-16
3.25371459323e-17
1.12848803159e-16
-4.28002664699e-15
2.17684194631e-16
-3.98536455525e-15
3.12617829216e-16
-3.63240022689e-15
3.9648916385e-16
-3.24444386822e-15
4.68579652063e-16
-2.83986327346e-15
5.28652113226e-16
-2.43356770571e-15
5.76779330653e-16
-2.03617985572e-15
6.13456620212e-16
-1.65593450182e-15
6.39348496267e-16
-1.29813369245e-15
6.55309829995e-16
-9.66319888287e-16
6.62368084817e-16
-6.62352262317e-16
6.61569436685e-16
-3.87063216195e-16
6.53975593472e-16
-1.40248747324e-16
6.40659053629e-16
7.87507364776e-17
6.22659641952e-16
2.71230745476e-16
6.0093420809e-16
4.38692207371e-16
5.7628912052e-16
5.82828034091e-16
5.49601324981e-16
7.05485994776e-16
5.21504385e-16
8.08494556832e-16
4.92572978407e-16
8.93683399544e-16
4.63307426305e-16
9.62805126313e-16
4.34076094982e-16
1.01750357593e-15
4.05157080209e-16
1.05933496879e-15
3.76923616111e-16
1.08973686276e-15
3.49478356466e-16
1.10997386037e-15
3.22890399234e-16
1.12123789809e-15
2.97329271134e-16
1.12456678064e-15
2.72749441942e-16
1.1208739909e-15
2.49229680992e-16
1.11099859976e-15
2.26750803377e-16
1.09565548853e-15
2.05304885158e-16
1.07546276812e-15
1.84852971808e-16
1.05096674923e-15
1.65398019739e-16
1.02262254549e-15
1.46926424497e-16
9.90812456282e-16
1.29445079323e-16
9.55846085476e-16
1.12897192747e-16
9.17947633871e-16
9.73711324179e-17
8.77264414026e-16
8.28079734694e-17
8.33839931474e-16
6.9249489665e-17
7.87607565738e-16
5.67416489022e-17
7.38349961863e-16
4.53515867434e-17
6.85655359313e-16
3.51350655095e-17
6.28862570145e-16
2.61865599636e-17
5.67016853957e-16
1.8594461453e-17
4.98957520323e-16
1.2419097961e-17
4.23851285601e-16
7.65191395457e-18
3.42583886933e-16
4.15724914639e-18
2.58956076448e-16
1.78870327104e-18
1.77870230843e-16
4.35524488157e-19
1.02266481048e-16
3.29726662279e-17
6.98491248466e-17
-4.34991181653e-15
1.34689383204e-16
-4.05010685291e-15
1.93149887105e-16
-3.69089842569e-15
2.44434957019e-16
-3.29567810835e-15
2.87947221568e-16
-2.88338529617e-15
3.2349183152e-16
-2.46898286106e-15
3.50884340755e-16
-2.06358870852e-15
3.70435096424e-16
-1.67551060079e-15
3.82564302485e-16
-1.31029890795e-15
3.87862405931e-16
-9.71668966144e-16
3.87067141419e-16
-6.61552137985e-16
3.80918329621e-16
-3.8090494648e-16
3.70210809719e-16
-1.29583219754e-16
3.55825338252e-16
9.31529051323e-17
3.38561378734e-16
2.88550478868e-16
3.19131880207e-16
4.58140058214e-16
2.98250179678e-16
6.03731635003e-16
2.765598224e-16
7.27202359897e-16
2.54580680796e-16
8.30496512854e-16
2.32770374445e-16
9.15519214631e-16
2.11510459243e-16
9.84084849068e-16
1.9108094388e-16
1.03795403232e-15
1.71701755393e-16
1.07873757475e-15
1.5351998857e-16
1.10793822892e-15
1.36615372997e-16
1.12689655475e-15
1.21011123065e-16
1.13684372178e-15
1.06678738317e-16
1.13885931658e-15
9.36544224815e-17
1.13390814389e-15
8.18292540947e-17
1.12283115163e-15
7.11063073973e-17
1.10636082732e-15
6.14383020073e-17
1.08513368286e-15
5.27097839914e-17
1.05968398423e-15
4.48485275143e-17
1.03047407445e-15
3.78023979133e-17
9.97878325208e-16
3.14687688955e-17
9.62191052018e-16
2.57797709715e-17
9.23630661364e-16
2.0705653045e-17
8.82332558983e-16
1.62193439941e-17
8.38331441691e-16
1.22869695671e-17
7.91545110237e-16
8.8987335083e-18
7.4174371202e-16
6.06400389414e-18
6.88505620171e-16
3.75057356498e-18
6.31157953731e-16
2.01607985242e-18
5.68744582078e-16
8.59904374976e-19
5.00116234085e-16
2.22649397441e-19
4.24486861488e-16
-2.24986741064e-20
3.42830499254e-16
-6.83967276886e-20
2.59000179559e-16
-4.65106658872e-20
1.77846781115e-16
-1.50995693177e-20
1.02234985251e-16
3.29574795377e-17
3.1047444727e-17
-4.38089928978e-15
5.97357480318e-17
-4.07872940506e-15
8.52991988268e-17
-3.71650653525e-15
1.07213978881e-16
-3.31764292299e-15
1.25043845149e-16
-2.90125135758e-15
1.3860300572e-16
-2.48228350737e-15
1.47465100702e-16
-2.07248238239e-15
1.51847377049e-16
-1.67984343203e-15
1.5185871381e-16
-1.31033485043e-15
1.47848900326e-16
-9.67690258576e-16
1.40264199521e-16
-6.53952930267e-16
1.29616178222e-16
-3.70182218304e-16
1.16423736569e-16
-1.16383953542e-16
1.01271024285e-16
1.08286360553e-16
8.47805792835e-17
3.05005774701e-16
6.75230514838e-17
4.75373210133e-16
5.00289672989e-17
6.21185604667e-16
3.28127711155e-17
7.44423664997e-16
1.62878941407e-17
8.4705564904e-16
7.27770369299e-19
9.31054433822e-16
-1.35067262691e-17
9.98344318605e-16
-2.62657584704e-17
1.05071732427e-15
-3.73976533533e-17
1.08987021951e-15
-4.68078258885e-17
1.11736263839e-15
-5.44965656403e-17
1.13460050529e-15
-6.05328619228e-17
1.14286105296e-15
-6.49775419839e-17
1.14326767661e-15
-6.78922138638e-17
1.13681467629e-15
-6.94161809801e-17
1.12436895376e-15
-6.9710692819e-17
1.10666636221e-15
-6.8944529195e-17
1.08435602412e-15
-6.72335979697e-17
1.05797501366e-15
-6.47470292483e-17
1.02797734976e-15
-6.16047438727e-17
9.94728784347e-16
-5.79352804798e-17
9.5851425932e-16
-5.38432070393e-17
9.19538743744e-16
-4.94239018265e-17
8.77921728067e-16
-4.47766917322e-17
8.33684761575e-16
-3.99712273185e-17
7.86734758354e-16
-3.5045174301e-17
7.36832135633e-16
-3.00797642979e-17
6.8354492834e-16
-2.51183766432e-17
6.26200999994e-16
-2.02202915551e-17
5.63848838468e-16
-1.54719164543e-17
4.95368664283e-16
-1.10248947021e-17
4.20037949852e-16
-7.10943894436e-18
3.38915311289e-16
-3.97285894711e-18
2.55862417045e-16
-1.74260508335e-18
1.75615300106e-16
-4.31929878013e-19
1.00922278253e-16
3.25254290514e-17
-3.74350257181e-18
-4.37718825398e-15
-7.39869715737e-18
-4.07512386775e-15
-1.12457455567e-17
-3.71271296486e-15
-1.55043349577e-17
-3.31342898018e-15
-2.05405770327e-17
-2.89626866373e-15
-2.6562186705e-17
-2.47621149656e-15
-3.40236922595e-17
-2.06506775039e-15
-4.29732295142e-17
-1.67094167644e-15
-5.34634585562e-17
-1.29983587816e-15
-6.54223150559e-17
-9.55650863487e-16
-7.87303399137e-17
-6.40620002952e-16
-9.3122733616e-17
-3.55791262472e-16
-1.0825455674e-16
-1.01238537277e-16
-1.23772125925e-16
1.23799194408e-16
-1.39288182562e-16
3.20500565895e-16
-1.54436816275e-16
4.90442126733e-16
-1.68751545659e-16
6.35479584677e-16
-1.81916485796e-16
7.57593635947e-16
-1.93636756962e-16
8.58792767476e-16
-2.0366729796e-16
9.41101728421e-16
-2.11799675906e-16
1.00648522683e-15
-2.17907978874e-16
1.05681760947e-15
-2.21913528328e-16
1.09385557598e-15
-2.23800132383e-16
1.11922434987e-15
-2.23568211361e-16
1.13438152268e-15
-2.21352461675e-16
1.14063201993e-15
-2.17264934729e-16
1.13916337078e-15
-2.11423920051e-16
1.13098649369e-15
-2.04056445488e-16
1.11698833784e-15
-1.95337704053e-16
1.09793594456e-15
-1.85472978965e-16
1.0744790364e-15
-1.74641551184e-16
1.04715504126e-15
-1.6306190978e-16
1.01640684524e-15
-1.50912256253e-16
9.82591632278e-16
-1.3837511762e-16
9.45982387415e-16
-1.25603722832e-16
9.06773989296e-16
-1.127440782e-16
8.65068720609e-16
-9.99387346254e-17
8.20873231432e-16
-8.72849045937e-17
7.74086111634e-16
-7.49015136575e-17
7.24454384118e-16
-6.28954280113e-17
6.71544249021e-16
-5.13876896896e-17
6.14686769998e-16
-4.04844377248e-17
5.52950702378e-16
-3.03761985027e-17
4.85258293628e-16
-2.13065838397e-17
4.10965827032e-16
-1.35997540202e-17
3.31210654224e-16
-7.55866446036e-18
2.49821652474e-16
-3.30582951098e-18
1.71363964519e-16
-8.16648068117e-19
9.84337086894e-17
3.17087425185e-17
-3.46084196249e-17
-4.34262867774e-15
-6.69358818684e-17
-4.04275400683e-15
-9.68826310444e-17
-3.68281882515e-15
-1.24305944922e-16
-3.28595451188e-15
-1.49528879876e-16
-2.87109872663e-15
-1.72789950941e-16
-2.45311221773e-15
-1.94518113609e-16
-2.04339342493e-15
-2.15007715312e-16
-1.65048610138e-15
-2.34513595028e-16
-1.28033327799e-15
-2.53193613709e-16
-9.36886164292e-16
-2.71209037347e-16
-6.22621650967e-16
-2.88513445606e-16
-3.38537410573e-16
-3.04973529415e-16
-8.47507359165e-17
-3.20479435245e-16
1.39318778488e-16
-3.34843665948e-16
3.34867035837e-16
-3.47799533017e-16
5.03428094315e-16
-3.59123060332e-16
6.4682000728e-16
-3.68586731174e-16
7.67069649062e-16
-3.75986637128e-16
8.662023408e-16
-3.81165290636e-16
9.46271921914e-16
-3.83989329182e-16
1.00928453003e-15
-3.84368953295e-16
1.05717329462e-15
-3.82239731975e-16
1.09173901561e-15
-3.77675574841e-16
1.11464917974e-15
-3.70727839624e-16
1.12742214759e-15
-3.61497172386e-16
1.13141383667e-15
-3.50182669296e-16
1.12783546621e-15
-3.36942437735e-16
1.1177355647e-15
-3.21979074572e-16
1.10203688482e-15
-3.0554370433e-16
1.0815122417e-15
-2.87873574372e-16
1.0568221799e-15
-2.69211304509e-16
1.02850527138e-15
-2.49798059263e-16
9.97004115367e-16
-2.2987629316e-16
9.62663635383e-16
-2.09638503599e-16
9.2575096218e-16
-1.89301865392e-16
8.86442690062e-16
-1.69059723057e-16
8.44821438304e-16
-1.49058398911e-16
8.00887783734e-16
-1.29494784906e-16
7.54521930648e-16
-1.10509183985e-16
7.05467563383e-16
-9.22516762982e-17
6.53292302055e-16
-7.49011890369e-17
5.9733611524e-16
-5.86446272558e-17
5.36697482448e-16
-4.37449138164e-17
4.7035547557e-16
-3.05323536448e-17
3.97756338357e-16
-1.94297669144e-17
3.2010962755e-16
-1.0782233062e-17
2.41173703367e-16
-4.71257747898e-18
1.65294038357e-16
-1.16361950041e-18
9.48841654212e-17
3.0544881033e-17
-6.17547186422e-17
-4.28092685949e-15
-1.19313872828e-16
-3.98515011828e-15
-1.72159090574e-16
-3.63001245807e-15
-2.19956573564e-16
-3.23820466097e-15
-2.62833908804e-16
-2.82826528813e-15
-3.01024061359e-16
-2.41488204955e-15
-3.35123934157e-16
-2.00936258827e-15
-3.65500932899e-16
-1.62014005833e-15
-3.92627120607e-16
-1.25323527689e-15
-4.16928802355e-16
-9.1268607457e-16
-4.38690835405e-16
-6.00922127167e-16
-4.58102039523e-16
-3.19103582213e-16
-4.7534946384e-16
-6.75288881616e-17
-4.90429195096e-16
1.54428386974e-16
-5.03432112192e-16
3.47791666839e-16
-5.1417924878e-16
5.14174620777e-16
-5.22581997835e-16
6.5526925609e-16
-5.28559187283e-16
7.7309389106e-16
-5.32032110523e-16
8.69679877662e-16
-5.32893646648e-16
9.4710956137e-16
-5.31046556697e-16
1.00742179874e-15
-5.26459722786e-16
1.05257542654e-15
-5.19114852022e-16
1.08440597069e-15
-5.09104365697e-16
1.104626656e-15
-4.96494908699e-16
1.11480303817e-15
-4.81413686878e-16
1.11633973836e-15
-4.64084684956e-16
1.11047247043e-15
-4.44638333279e-16
1.09830529701e-15
-4.23338326705e-16
1.08076212873e-15
-4.0045269337e-16
1.05864543228e-15
-3.76257004009e-16
1.03263157779e-15
-3.51028983763e-16
1.00326015942e-15
-3.25036748133e-16
9.70978162072e-16
-2.98497701756e-16
9.36128490926e-16
-2.71676402172e-16
8.98958290608e-16
-2.44886337148e-16
8.59627491885e-16
-2.18278437847e-16
8.18217715601e-16
-1.92089633707e-16
7.74706385005e-16
-1.66547259079e-16
7.28965245916e-16
-1.418106029e-16
6.80736428992e-16
-1.18100028636e-16
6.29587388541e-16
-9.56386609706e-17
5.74877736832e-16
-7.46820807779e-17
5.1574417701e-16
-5.55668703796e-17
4.51236202917e-16
-3.87140824852e-17
3.80899617424e-16
-2.46128786211e-17
3.06009527e-16
-1.36575001726e-17
2.30217696853e-16
-5.97266762714e-18
1.5760856248e-16
-1.47692105787e-18
9.03876537632e-17
2.90683684868e-17
-8.5382015829e-17
-4.1955008874e-15
-1.64926233218e-16
-3.90555704971e-15
-2.37702545342e-16
-3.55728021079e-15
-3.03191515606e-16
-3.17275465572e-15
-3.61371033763e-16
-2.77013097126e-15
-4.12487654565e-16
-2.3637146643e-15
-4.57176887438e-16
-1.96472344648e-15
-4.95939899781e-16
-1.58141693119e-15
-5.29431829304e-16
-1.21976557655e-15
-5.58198814605e-16
-8.8389472841e-16