/*--------------------------------*- C++ -*----------------------------------*\
| =========                 |                                                 |
| \\      /  F ield         | OpenFOAM: The Open Source CFD Toolbox           |
|  \\    /   O peration     | Version:  3.0.1                                 |
|   \\  /    A nd           | Web:      www.OpenFOAM.org                      |
|    \\/     M anipulation  |                                                 |
\*---------------------------------------------------------------------------*/
FoamFile
{
    version     2.0;
    format      ascii;
    class       volSymmTensorField;
    location    "50000";
    object      R;
}
// * * * * * * * * * * * * * * * * * * * * * * * * * * * * * * * * * * * * * //

dimensions      [0 2 -2 0 0 0 0];

internalField   nonuniform List<symmTensor> 
2500
(
(0.000606042134977 2.3242981163e-05 2.3242416446e-05 0.000606042134819 1.28293722632e-17 0.000606042135136)
(0.000618210721939 6.85830654658e-05 2.33798587172e-05 0.000618210721784 4.69200032546e-17 0.000618210722094)
(0.000640316200598 0.000111594145493 2.36164497184e-05 0.000640316200449 7.13052614195e-17 0.000640316200747)
(0.0006700697749 0.000152254582787 2.39064661834e-05 0.000670069774759 1.00983496723e-16 0.000670069775041)
(0.0007053903401 0.000190606259512 2.42044804194e-05 0.000705390339969 1.70605513632e-16 0.000705390340231)
(0.000744542124153 0.000226756626583 2.44697379578e-05 0.000744542124035 1.94329662687e-16 0.000744542124272)
(0.00078616855084 0.000260866936804 2.4668091388e-05 0.000786168550736 2.34620888868e-16 0.000786168550944)
(0.000829264054247 0.000293134150269 2.47725760657e-05 0.000829264054157 2.33918237537e-16 0.000829264054336)
(0.00087311842218 0.000323772724699 2.47633672783e-05 0.000873118422106 1.80067861343e-16 0.000873118422254)
(0.000917254800287 0.00035299913778 2.46274798678e-05 0.000917254800229 1.6345831088e-16 0.000917254800345)
(0.000961371779533 0.000381019828552 2.43583327379e-05 0.000961371779491 9.46365760916e-17 0.000961371779576)
(0.00100529358443 0.000408022380147 2.39551957286e-05 0.0010052935844 1.70925892758e-17 0.00100529358445)
(0.00104892916702 0.000434169544008 2.34225115953e-05 0.00104892916701 -8.23650738224e-17 0.00104892916703)
(0.00109223963902 0.000459595695752 2.27690968975e-05 0.00109223963902 -2.07506982763e-16 0.00109223963902)
(0.00113521301158 0.000484405332773 2.2007245261e-05 0.00113521301159 -3.34652022869e-16 0.00113521301157)
(0.00117784514172 0.00050867323313 2.11517767506e-05 0.00117784514175 -4.6774051768e-16 0.00117784514169)
(0.00122012585164 0.00053244589783 2.02190856029e-05 0.00122012585168 -5.95691467604e-16 0.0012201258516)
(0.00126202928415 0.000555743900357 1.92262412339e-05 0.00126202928419 -7.19140293006e-16 0.0012620292841)
(0.00130350764454 0.000578564784402 1.81901889159e-05 0.00130350764459 -8.30747322482e-16 0.00130350764449)
(0.0013444875499 0.000600886177425 1.71270850084e-05 0.00134448754996 -9.26810857116e-16 0.00134448754984)
(0.00138486826469 0.000622668830112 1.6051786116e-05 0.00138486826476 -1.00836956263e-15 0.00138486826463)
(0.00142452115243 0.000643859339161 1.49774962771e-05 0.0014245211525 -1.0709563497e-15 0.00142452115236)
(0.00146328971977 0.000664392355672 1.39155635254e-05 0.00146328971984 -1.11763677557e-15 0.0014632897197)
(0.00150098967111 0.000684192124834 1.28754081262e-05 0.00150098967119 -1.13674640305e-15 0.00150098967104)
(0.00153740842287 0.000703173229381 1.18645584273e-05 0.00153740842295 -1.13013644137e-15 0.0015374084228)
(0.00157230353895 0.000721240419115 1.08887682488e-05 0.00157230353902 -1.10565318952e-15 0.00157230353887)
(0.00160539952966 0.000738287395671 9.95219079036e-06 0.00160539952973 -1.05609298452e-15 0.00160539952959)
(0.00163638238997 0.000754194381044 9.05758628674e-06 0.00163638239004 -9.86181450598e-16 0.0016363823899)
(0.00166489111593 0.000768824215657 8.20654415224e-06 0.001664891116 -8.96820552698e-16 0.00166489111586)
(0.00169050520159 0.000782016600463 7.39970546498e-06 0.00169050520165 -7.87935464463e-16 0.00169050520152)
(0.00171272673483 0.000793579890258 6.63697512853e-06 0.00171272673489 -6.58387308985e-16 0.00171272673476)
(0.00173095511167 0.000803279517903 5.91771696393e-06 0.00173095511173 -5.13552693555e-16 0.00173095511161)
(0.00174445146857 0.000810821624761 5.24092848092e-06 0.00174445146862 -3.56668332728e-16 0.00174445146851)
(0.00175228853219 0.000815829665344 4.60539458558e-06 0.00175228853224 -1.89037756057e-16 0.00175228853214)
(0.00175327947542 0.000817810457256 4.00982158785e-06 0.00175327947546 -1.55308254526e-17 0.00175327947538)
(0.00174587624997 0.000816104031134 3.45295490667e-06 0.00174587625001 1.59637877362e-16 0.00174587624993)
(0.00172802347729 0.000809808159046 2.93368565333e-06 0.00172802347732 3.32974584604e-16 0.00172802347725)
(0.00169694855775 0.000797662804976 2.45115393906e-06 0.00169694855778 4.98488249033e-16 0.00169694855772)
(0.00164886461497 0.000777871099489 2.00486089159e-06 0.00164886461499 6.49394091523e-16 0.00164886461494)
(0.0015785704269 0.000747822686509 1.59481034028e-06 0.00157857042692 7.76986645009e-16 0.00157857042688)
(0.00147898656125 0.000703683981891 1.22171997954e-06 0.00147898656127 8.69407128572e-16 0.00147898656124)
(0.00134088539795 0.000639890627078 8.8738518011e-07 0.00134088539796 9.10387330214e-16 0.00134088539794)
(0.00115378726022 0.000548999008098 5.95365882087e-07 0.00115378726023 8.77882887919e-16 0.00115378726021)
(0.000910885142607 0.000424097501991 3.52243550553e-07 0.000910885142611 7.47456234072e-16 0.000910885142603)
(0.000623401172997 0.000270002453315 1.68977851757e-07 0.000623401172999 5.15951416082e-16 0.000623401172995)
(0.000341216164165 0.000122931383453 5.71809146981e-08 0.000341216164165 2.5126830539e-16 0.000341216164164)
(0.000137111646451 3.37033931041e-05 1.13443057333e-08 0.000137111646451 7.28996325521e-17 0.000137111646451)
(3.66729736849e-05 4.60775360428e-06 1.05279447225e-09 3.66729736849e-05 1.04616284768e-17 3.66729736849e-05)
(6.13913147605e-06 2.63899313605e-07 3.48794357449e-11 6.13913147605e-06 6.25083670514e-19 6.13913147605e-06)
(9.16556943847e-06 6.80953583093e-08 2.92555106182e-12 9.16556943847e-06 1.6748632376e-19 9.16556943847e-06)
(0.000618210078707 2.33803716533e-05 6.8581415732e-05 0.000618210078552 1.33695325168e-17 0.000618210078862)
(0.000630377868366 6.89882514321e-05 6.89867502016e-05 0.000630377868214 5.95902507124e-17 0.000630377868518)
(0.000652481630192 0.000112252552896 6.9685806797e-05 0.000652481630046 1.15913571193e-16 0.000652481630338)
(0.00068222959526 0.000153149012504 7.0545463232e-05 0.000682229595122 1.86805214293e-16 0.000682229595398)
(0.000717533094907 0.00019171467822 7.14331895021e-05 0.000717533094779 3.30126255777e-16 0.000717533095035)
(0.000756644457573 0.000228050552119 7.22296449067e-05 0.000756644457458 4.13292523803e-16 0.000756644457689)
(0.000798192495753 0.000262311002202 7.28343207273e-05 0.000798192495651 4.79667157127e-16 0.000798192495855)
(0.000841156361107 0.000294686843046 7.31672942547e-05 0.000841156361019 5.09182465628e-16 0.000841156361194)
(0.000884811750533 0.00032538800448 7.3169204298e-05 0.000884811750461 4.37574243595e-16 0.000884811750606)
(0.000928670362427 0.000354628578656 7.28004829558e-05 0.00092867036237 3.30892677685e-16 0.000928670362483)
(0.000972422982867 0.00038261496653 7.20401983479e-05 0.000972422982825 1.35364750884e-16 0.000972422982908)
(0.00101589024327 0.000409537002004 7.08845574557e-05 0.00101589024325 -1.04948235095e-16 0.0010158902433)
(0.00105898189533 0.000435561712383 6.93450398346e-05 0.00105898189531 -4.22995951114e-16 0.00105898189534)
(0.00110166408202 0.000460829361845 6.74461638956e-05 0.00110166408202 -7.7327112306e-16 0.00110166408202)
(0.00114393362839 0.000485451448191 6.52229464435e-05 0.00114393362841 -1.12347652499e-15 0.00114393362838)
(0.00118579831449 0.000509510330502 6.27181733558e-05 0.00118579831452 -1.49450487e-15 0.00118579831447)
(0.00122726216954 0.000533060162562 5.99796323942e-05 0.00122726216958 -1.85707593444e-15 0.0012272621695)
(0.00126831492757 0.00055612879863 5.70574671923e-05 0.00126831492761 -2.2048900764e-15 0.00126831492752)
(0.00130892487017 0.00057872034102 5.40017942597e-05 0.00130892487022 -2.52099408397e-15 0.00130892487012)
(0.00134903434433 0.000600818013088 5.0860691843e-05 0.00134903434438 -2.80277368626e-15 0.00134903434427)
(0.00138855728689 0.000622387067173 4.76786265784e-05 0.00138855728696 -3.03152612289e-15 0.00138855728683)
(0.00142737812063 0.000643377474006 4.4495339526e-05 0.0014273781207 -3.20128827604e-15 0.00142737812057)
(0.00146535141477 0.000663726179123 4.13451744603e-05 0.00146535141484 -3.32599577827e-15 0.0014653514147)
(0.00150230172715 0.0006833587497 3.82568020161e-05 0.00150230172722 -3.38752854307e-15 0.00150230172708)
(0.00153802306248 0.000702190261011 3.52532730289e-05 0.00153802306255 -3.37015252945e-15 0.00153802306241)
(0.00157227738322 0.000720125286509 3.2352326755e-05 0.00157227738329 -3.2949600603e-15 0.00157227738315)
(0.00160479158551 0.000737056844927 2.95668787961e-05 0.00160479158558 -3.15223921841e-15 0.00160479158544)
(0.00163525228438 0.000752864119107 2.69056210073e-05 0.00163525228445 -2.93882669614e-15 0.00163525228431)
(0.00166329761786 0.000767408686712 2.43736746806e-05 0.00166329761793 -2.67036214918e-15 0.00166329761779)
(0.00168850504725 0.000780528874156 2.19732520546e-05 0.00168850504731 -2.34236798574e-15 0.00168850504718)
(0.00171037375228 0.000792031638224 1.97042925464e-05 0.00171037375234 -1.96203389442e-15 0.00171037375222)
(0.00172829962755 0.000801681057752 1.75650519695e-05 0.00172829962761 -1.53556360573e-15 0.0017282996275)
(0.00174153997282 0.000809182013977 1.55526331753e-05 0.00174153997287 -1.06947090787e-15 0.00174153997277)
(0.00174916357617 0.000814156830672 1.36634544034e-05 0.00174916357622 -5.75911638748e-16 0.00174916357612)
(0.00174997978644 0.000816111350794 1.1893658941e-05 0.00174997978648 -6.38851897521e-17 0.0017499797864)
(0.00174243706348 0.000814384811541 1.0239475257e-05 0.00174243706352 4.54556575778e-16 0.00174243706344)
(0.00172447712518 0.000808074408467 8.6975427986e-06 0.00172447712521 9.66001382045e-16 0.00172447712515)
(0.00169332542589 0.000795919816024 7.26522660086e-06 0.00169332542592 1.4542015207e-15 0.00169332542586)
(0.00164519473917 0.000776124323662 5.94095635555e-06 0.00164519473919 1.89915493842e-15 0.00164519473914)
(0.00157488633206 0.000746078580751 4.72465211428e-06 0.00157488633208 2.27526606853e-15 0.00157488633204)
(0.00147532868042 0.000701951896183 3.61835536086e-06 0.00147532868043 2.54732713679e-15 0.00147532868041)
(0.00133731292219 0.000638187545515 2.62731224029e-06 0.0013373129222 2.66741938098e-15 0.00133731292218)
(0.0011503996741 0.000547362110983 1.76201457492e-06 0.00115039967411 2.57069799118e-15 0.00115039967409)
(0.000907858729913 0.000422614475533 1.04192622957e-06 0.000907858729917 2.18665155919e-15 0.000907858729909)
(0.000621014009213 0.000268850036301 4.99472003286e-07 0.000621014009215 1.50758668798e-15 0.000621014009211)
(0.000339731123714 0.00012229214907 1.6887458045e-07 0.000339731123715 7.33118220321e-16 0.000339731123713)
(0.000136468018567 3.35017190029e-05 3.34798449362e-08 0.000136468018567 2.12408181369e-16 0.000136468018567)
(3.64968586333e-05 4.57835051489e-06 3.10596678278e-09 3.64968586333e-05 3.04521912096e-17 3.64968586333e-05)
(6.1113378451e-06 2.62263870434e-07 1.0292176676e-10 6.1113378451e-06 1.81869277655e-18 6.1113378451e-06)
(9.13450760547e-06 6.77506697778e-08 8.64245255278e-12 9.13450760547e-06 4.87503498929e-19 9.13450760547e-06)
(0.00064031450844 2.36168739049e-05 0.000111591535383 0.000640314508291 -4.60656208615e-17 0.000640314508589)
(0.000652480578083 6.96870531794e-05 0.000112250171325 0.000652480577937 -6.69440110898e-17 0.00065248057823)
(0.00067458160332 0.000113391937428 0.000113389948987 0.000674581603179 1.12697262167e-17 0.000674581603461)
(0.000704321842813 0.000154703767087 0.000114799660136 0.00070432184268 1.26528180573e-16 0.000704321842946)
(0.000739600474453 0.000193651370547 0.000116268329927 0.00073960047433 2.83389008149e-16 0.000739600474576)
(0.00077864961338 0.000230324002964 0.000117604740356 0.000778649613269 4.23225756219e-16 0.000778649613491)
(0.00082007247666 0.000264862992752 0.000118646366982 0.000820072476562 4.95378364082e-16 0.000820072476758)
(0.00086282078564 0.000297447055533 0.000119262349609 0.000862820785556 5.23830304658e-16 0.000862820785724)
(0.000906144302913 0.000328276668676 0.000119353716312 0.000906144302844 4.52694778455e-16 0.000906144302983)
(0.000949532956647 0.000357560185567 0.000118852462385 0.000949532956592 2.53457709491e-16 0.000949532956701)
(0.00099266183198 0.000385502472056 0.000117720036432 0.000992661831941 -3.78749551201e-17 0.000992661832019)
(0.00103534309845 0.000412296037161 0.000115945301619 0.00103534309843 -4.14756474007e-16 0.00103534309848)
(0.00107748578017 0.000438114414457 0.000113541905998 0.00107748578016 -8.90656012442e-16 0.00107748578018)
(0.00111906291781 0.000463107540342 0.000110545035096 0.00111906291782 -1.41053006076e-15 0.00111906291781)
(0.00116008522817 0.00048739889809 0.000107007614251 0.00116008522819 -1.95519968116e-15 0.00116008522816)
(0.00120058032194 0.000511084206983 0.000102996123858 0.00120058032196 -2.52085753328e-15 0.00120058032192)
(0.00124057663471 0.000534231426212 9.85862530929e-05 0.00124057663474 -3.08079069724e-15 0.00124057663467)
(0.00128009133879 0.000556881820336 9.38586437808e-05 0.00128009133883 -3.61796428539e-15 0.00128009133874)
(0.00131912159149 0.000579051816175 8.88949621336e-05 0.00131912159154 -4.1077760551e-15 0.00131912159144)
(0.00135763852915 0.000600735369838 8.37744930764e-05 0.00135763852921 -4.54085363909e-15 0.0013576385291)
(0.00139558344047 0.000621906564273 7.85713889326e-05 0.00139558344053 -4.90224485725e-15 0.00139558344041)
(0.00143286555915 0.000642522172936 7.33526366913e-05 0.00143286555922 -5.1799727055e-15 0.00143286555909)
(0.00146936091273 0.000662523948989 6.81767419007e-05 0.00146936091279 -5.35861123801e-15 0.00146936091266)
(0.00150491165749 0.000681840426242 6.30930744716e-05 0.00150491165756 -5.44452020763e-15 0.00150491165742)
(0.00153932531979 0.000700388042985 5.81417835565e-05 0.00153932531986 -5.4272005571e-15 0.00153932531972)
(0.00157237334498 0.000718071413822 5.33541678941e-05 0.00157237334505 -5.29924820074e-15 0.00157237334491)
(0.00160378831772 0.000734782571812 4.87533813034e-05 0.00160378831779 -5.06821653051e-15 0.00160378831765)
(0.00163325914318 0.000750398971519 4.43553591517e-05 0.00163325914325 -4.73298213042e-15 0.00163325914311)
(0.00166042334489 0.000764779975552 4.01698658096e-05 0.00166042334495 -4.29620719827e-15 0.00166042334482)
(0.00168485540778 0.000777761427077 3.62015812413e-05 0.00168485540784 -3.76586330897e-15 0.00168485540772)
(0.00170604972591 0.000789147709149 3.24511646672e-05 0.00170604972596 -3.15428821151e-15 0.00170604972585)
(0.00172339613225 0.000798700375149 2.89162536166e-05 0.00172339613231 -2.46944704619e-15 0.0017233961322)
(0.00173614508641 0.000806121932153 2.55923731015e-05 0.00173614508646 -1.72423097935e-15 0.00173614508636)
(0.00174335821508 0.000811032556451 2.24737447332e-05 0.00174335821513 -9.33626485993e-16 0.00174335821503)
(0.00174383781268 0.000812936227642 1.95539985437e-05 0.00174383781272 -1.13369595219e-16 0.00174383781264)
(0.00173602582285 0.000811170655891 1.68268004421e-05 0.00173602582289 7.18778901653e-16 0.00173602582282)
(0.00171785848811 0.000804831917133 1.42864192031e-05 0.00171785848814 1.53949542693e-15 0.00171785848807)
(0.001686557542 0.000792659108596 1.19282703615e-05 0.00168655754203 2.32333105505e-15 0.00168655754197)
(0.00163833500928 0.00077285579022 9.7494959903e-06 0.0016383350093 3.0384628242e-15 0.00163833500926)
(0.00156799673258 0.000742814481695 7.74968282796e-06 0.0015679967326 3.64234954376e-15 0.00156799673256)
(0.00146848595009 0.000698709925451 5.93191516565e-06 0.00146848595011 4.07933460898e-15 0.00146848595008)
(0.00133062895969 0.000634999770567 4.30456942495e-06 0.0013306289597 4.27165862987e-15 0.00133062895968)
(0.00114406197223 0.000544298626473 2.88468150039e-06 0.00114406197223 4.11518329879e-15 0.00114406197222)
(0.00090219868358 0.000419840294428 1.7040676848e-06 0.000902198683584 3.49747416145e-15 0.000902198683576)
(0.000616552789713 0.000266696649701 8.15773860318e-07 0.000616552789715 2.40803302723e-15 0.000616552789712)
(0.000336958634483 0.000121099655317 2.75376770093e-07 0.000336958634483 1.16897666571e-15 0.000336958634482)
(0.00013526733688 3.31260755824e-05 5.45213065886e-08 0.00013526733688 3.38193554357e-16 0.00013526733688)
(3.61684098757e-05 4.52362989012e-06 5.05467264424e-09 3.61684098757e-05 4.84488363773e-17 3.61684098757e-05)
(6.05948729767e-06 2.59219825746e-07 1.67556960327e-10 6.05948729767e-06 2.89439641972e-18 6.05948729767e-06)
(9.07644399007e-06 6.71078899811e-08 1.40998411533e-11 9.07644399007e-06 7.77458130106e-19 9.07644399007e-06)
(0.000670066891787 2.39067810228e-05 0.000152251185647 0.000670066891646 -1.05464416256e-16 0.000670066891928)
(0.000682227342393 7.05463952225e-05 0.000153145903521 0.000682227342255 -1.89106208111e-16 0.000682227342532)
(0.000704320631987 0.000114801162402 0.000154701155155 0.000704320631854 -1.2420883476e-16 0.00070432063212)
(0.00073404931742 0.000156641260547 0.000156639265367 0.000734049317295 3.81763207893e-18 0.000734049317545)
(0.000769300125127 0.000196085737199 0.000158681698353 0.000769300125011 1.71103804507e-16 0.000769300125243)
(0.000808281393427 0.000233208148158 0.000160573837159 0.000808281393322 3.26448011739e-16 0.000808281393531)
(0.000849564295787 0.000268131369271 0.000162096628297 0.000849564295694 4.30144533225e-16 0.000849564295879)
(0.000892064713693 0.000301016091568 0.000163070765569 0.000892064713614 4.44738204033e-16 0.000892064713772)
(0.00093499716408 0.000332047695425 0.00016335741931 0.000934997164015 3.41775296517e-16 0.000934997164145)
(0.000977820578753 0.000361424023841 0.000162857539547 0.000977820578703 1.09388623167e-16 0.000977820578804)
(0.00102018603629 0.000389344904301 0.000161510438399 0.00102018603626 -2.42799026e-16 0.00102018603633)
(0.00106189052329 0.000416003512203 0.000159291722145 0.00106189052327 -7.09328907043e-16 0.00106189052332)
(0.00110283769151 0.000441579451546 0.000156210452163 0.0011028376915 -1.28216781334e-15 0.00110283769152)
(0.00114300523192 0.000466233414484 0.000152305449418 0.00114300523192 -1.92940095463e-15 0.00114300523192)
(0.00118241805412 0.000490103311207 0.000147640776455 0.00118241805413 -2.62539443607e-15 0.00118241805411)
(0.00122112643338 0.000513301772258 0.000142300562663 0.0012211264334 -3.34755249075e-15 0.00122112643336)
(0.00125918840421 0.000535914914194 0.000136383436938 0.00125918840424 -4.06759990455e-15 0.00125918840417)
(0.00129665581228 0.000558002228043 0.000129996888319 0.00129665581232 -4.75744835289e-15 0.00129665581224)
(0.00133356353716 0.000579597411027 0.00012325188055 0.00133356353721 -5.3944879699e-15 0.00133356353711)
(0.00136992145159 0.000600709923365 0.000116258010161 0.00136992145164 -5.95350368313e-15 0.00136992145153)
(0.00140570869472 0.000621327024857 0.000109119430321 0.00140570869478 -6.43131356411e-15 0.00140570869466)
(0.00144086981767 0.000641416030577 0.000101931677232 0.00144086981773 -6.80916059036e-15 0.00144086981761)
(0.00147531232234 0.000660926522058 9.47794484518e-05 0.0014753123224 -7.0424564649e-15 0.00147531232228)
(0.00150890506966 0.000679792262457 8.77353024244e-05 0.00150890506972 -7.15106193691e-15 0.0015089050696)
(0.00154147698533 0.000697932576598 8.08591867062e-05 0.00154147698539 -7.1397727229e-15 0.00154147698526)
(0.00157281543989 0.000715252970689 7.4198659818e-05 0.00157281543996 -6.97285476976e-15 0.00157281543983)
(0.00160266361732 0.000731644765298 6.77896513109e-05 0.00160266361738 -6.66386891931e-15 0.00160266361726)
(0.00163071609662 0.000746983494052 6.16576023126e-05 0.00163071609668 -6.22933248287e-15 0.00163071609656)
(0.00165661173153 0.000761125762265 5.58188402963e-05 0.00165661173159 -5.65837198307e-15 0.00165661173147)
(0.00167992268788 0.000773904146482 5.02820636743e-05 0.00167992268794 -4.96308635549e-15 0.00167992268782)
(0.00170013813758 0.000785119528679 4.50498369394e-05 0.00170013813763 -4.15663719044e-15 0.00170013813753)
(0.00171664053933 0.000794529946993 4.01200247523e-05 0.00171664053938 -3.25175900032e-15 0.00171664053928)
(0.00172867154965 0.000801834547425 3.54871188212e-05 0.0017286715497 -2.26654140645e-15 0.00172867154961)
(0.00173528324589 0.000806650425891 3.11434339348e-05 0.00173528324593 -1.21785463013e-15 0.00173528324584)
(0.00173526827693 0.000808478859389 2.70801695957e-05 0.00173526827697 -1.29204998127e-16 0.00173526827689)
(0.00172705950274 0.000806655320133 2.32883505114e-05 0.00172705950277 9.76040897785e-16 0.00172705950271)
(0.00170858540279 0.000800274220549 1.97596760753e-05 0.00170858540282 2.06834626275e-15 0.00170858540276)
(0.00167706232325 0.000788073766983 1.64873289997e-05 0.00167706232327 3.11268632207e-15 0.00167706232322)
(0.00162870104187 0.000768257840366 1.34668249354e-05 0.00162870104189 4.06534980262e-15 0.00162870104185)
(0.0015583136636 0.000738221566146 1.06970455796e-05 0.00155831366362 4.8692627486e-15 0.00155831366358)
(0.0014588641171 0.000694147373804 8.18172916324e-06 0.00145886411711 5.45000159232e-15 0.00145886411709)
(0.0013212282921 0.000630513328704 5.93198447808e-06 0.00132122829211 5.70346672921e-15 0.00132122829209)
(0.00113514917049 0.000539988058357 3.97097861791e-06 0.00113514917049 5.49028799567e-15 0.00113514917048)
(0.00089424329416 0.00041593979468 2.34240316534e-06 0.000894243294164 4.66023554836e-15 0.000894243294156)
(0.000610289736899 0.000263674217878 1.11919030932e-06 0.0006102897369 3.20221276439e-15 0.000610289736897)
(0.000333072584941 0.000119430256045 3.7694265417e-07 0.000333072584942 1.55081575996e-15 0.000333072584941)
(0.00013358646632 3.26014791292e-05 7.44893602406e-08 0.00013358646632 4.47781045929e-16 0.00013358646632)
(3.57088069022e-05 4.44731250809e-06 6.8994912463e-09 3.57088069022e-05 6.4087722253e-17 3.57088069022e-05)
(5.98689619127e-06 2.54973492389e-07 2.2882977954e-10 5.98689619127e-06 3.83096115779e-18 5.98689619127e-06)
(8.9948996734e-06 6.62085794219e-08 1.93137368819e-11 8.9948996734e-06 1.03223118308e-18 8.9948996734e-06)
(0.000705386332847 2.42046796275e-05 0.000190602276489 0.000705386332716 -1.54945042934e-16 0.000705386332977)
(0.00071752969952 7.14337883397e-05 0.000191711022091 0.000717529699392 -3.15684351758e-16 0.000717529699648)
(0.000739598096793 0.000116269315344 0.000193648280017 0.00073959809667 -2.80566407719e-16 0.000739598096916)
(0.00076929894158 0.000158683035279 0.000196083351039 0.000769298941464 -1.63514703206e-16 0.000769298941696)
(0.000804511353853 0.000198684571521 0.000198682940656 0.000804511353746 -8.01079370229e-19 0.00080451135396)
(0.00084342172732 0.000236329366716 0.000201139298386 0.000843421727223 1.63556898522e-16 0.000843421727417)
(0.000884567772887 0.000271717416596 0.000203183834853 0.000884567772802 2.79269807389e-16 0.000884567772972)
(0.00092682527554 0.000304985752492 0.000204592429607 0.000926825275467 3.04916243591e-16 0.000926825275613)
(0.000969367120067 0.000336298549183 0.000205186879898 0.000969367120007 2.03562711455e-16 0.000969367120126)
(0.00101161351104 0.000365837169294 0.000204834783962 0.00101161351099 -4.24910923382e-17 0.00101161351109)
(0.00105318320779 0.000393791057134 0.000203448665108 0.00105318320775 -4.38249195944e-16 0.00105318320782)
(0.00109384982223 0.000420349701973 0.000200984397361 0.00109384982221 -9.53643331697e-16 0.00109384982225)
(0.00113350419211 0.000445695673342 0.000197438744776 0.0011335041921 -1.57568235722e-15 0.00113350419212)
(0.00117212251194 0.000469998709758 0.000192845845385 0.00117212251194 -2.29108171263e-15 0.00117212251194)
(0.00120973947761 0.000493410871595 0.000187272603209 0.00120973947763 -3.10247176531e-15 0.0012097394776)
(0.00124642568928 0.000516062787794 0.000180813106415 0.0012464256893 -3.9423303114e-15 0.00124642568926)
(0.00128226869523 0.000538061019053 0.000173582329887 0.00128226869526 -4.76575093875e-15 0.0012822686952)
(0.00131735721902 0.000559486525965 0.000165709470717 0.00131735721906 -5.57435852157e-15 0.00131735721898)
(0.00135176823423 0.000580394178776 0.000157331309145 0.00135176823428 -6.32451739824e-15 0.00135176823419)
(0.00138555661911 0.000600813186619 0.00014858597383 0.00138555661916 -6.99065408381e-15 0.00138555661906)
(0.00141874713603 0.000620748264259 0.000139607438941 0.00141874713609 -7.55127646499e-15 0.00141874713598)
(0.001451328449 0.000640181307033 0.000130520991495 0.00145132844906 -7.991772555e-15 0.00145132844894)
(0.00148324882913 0.000659073310682 0.000121439808699 0.00148324882918 -8.29208216831e-15 0.00148324882907)
(0.00151441311696 0.000677366255265 0.000112462679902 0.00151441311702 -8.4435117307e-15 0.0015144131169)
(0.00154468042087 0.000694984667522 0.000103672818771 0.00154468042093 -8.43281739385e-15 0.00154468042081)
(0.00157386193769 0.000711836577273 9.5137639934e-05 0.00157386193775 -8.25771641936e-15 0.00157386193763)
(0.00160171818203 0.00072781358421 8.69093288469e-05 0.00160171818209 -7.91419384681e-15 0.00160171818198)
(0.00162795479286 0.000742789731119 7.9026013985e-05 0.00162795479292 -7.40191867818e-15 0.0016279547928)
(0.001652215928 0.000756618833592 7.15133494332e-05 0.00165221592805 -6.72918821047e-15 0.00165221592795)
(0.00167407402493 0.000769129816663 6.43863350681e-05 0.00167407402498 -5.9100886184e-15 0.00167407402487)
(0.001693014348 0.000780119428979 5.76512279872e-05 0.00169301434805 -4.95011091458e-15 0.00169301434795)
(0.00170841218381 0.000789341409004 5.13074324403e-05 0.00170841218386 -3.86633812287e-15 0.00170841218377)
(0.00171949967685 0.000796490687625 4.53492893377e-05 0.0017194996769 -2.6836996281e-15 0.00171949967681)
(0.00172531795741 0.000801180423423 3.97677183964e-05 0.00172531795745 -1.42076375219e-15 0.00172531795737)
(0.00172464817714 0.000802908385002 3.45516946359e-05 0.00172464817718 -1.0608093432e-16 0.0017246481771)
(0.00171591205395 0.000801007097751 2.96895667839e-05 0.00171591205398 1.22990452633e-15 0.00171591205392)
(0.00169702831626 0.000794568744939 2.51702497346e-05 0.00169702831629 2.55200161355e-15 0.00169702831623)
(0.00166520635882 0.000782330285761 2.09843516581e-05 0.00166520635884 3.8169081546e-15 0.0016652063588)
(0.00161665510928 0.000762495902952 1.71253392199e-05 0.0016166551093 4.97076165908e-15 0.00161665510926)
(0.00154619424896 0.000732463943868 1.35909234902e-05 0.00154619424898 5.94514498253e-15 0.00154619424894)
(0.00144681351529 0.000688426543118 1.03850187607e-05 0.00144681351531 6.64738721606e-15 0.00144681351528)
(0.00130945116175 0.000624887679775 7.52100025919e-06 0.00130945116176 6.94994374205e-15 0.00130945116174)
(0.00112398467708 0.000534584550788 5.02772681488e-06 0.00112398467709 6.68209230902e-15 0.00112398467707)
(0.000884285456467 0.000411055350473 2.96032514437e-06 0.00088428545647 5.66172019257e-15 0.000884285456463)
(0.000602462413827 0.000259898049109 1.41095835236e-06 0.000602462413828 3.88044095839e-15 0.000602462413825)
(0.000328226205984 0.000117351722645 4.73847694051e-07 0.000328226205984 1.87357992239e-15 0.000328226205984)
(0.000131493594989 3.19504060019e-05 9.34169284027e-08 0.000131493594989 5.39621963634e-16 0.000131493594989)
(3.51368804339e-05 4.35276107885e-06 8.64254660745e-09 3.51368804339e-05 7.71400301753e-17 3.51368804339e-05)
(5.89650446423e-06 2.49711100122e-07 2.86830029702e-10 5.89650446423e-06 4.61466886772e-18 5.89650446423e-06)
(8.89293547193e-06 6.5089693788e-08 2.43006780823e-11 8.89293547193e-06 1.24827429606e-18 8.89293547193e-06)
(0.000744537186547 2.44698256223e-05 0.000226752261535 0.000744537186428 -1.96368599463e-16 0.000744537186665)
(0.000756640104647 7.22299217106e-05 0.000228046533646 0.000756640104531 -4.09331329515e-16 0.000756640104762)
(0.00077864623872 0.000117605224307 0.000230320586055 0.000778646238609 -4.11848221488e-16 0.000778646238831)
(0.000808279177347 0.000160574532636 0.000233205483661 0.000808279177242 -3.21821085981e-16 0.000808279177451)
(0.000843420674507 0.000201140189744 0.000236327512984 0.00084342067441 -1.64707528609e-16 0.000843420674603)
(0.000882242517853 0.000239338764009 0.000239337708433 0.000882242517766 1.233668276e-18 0.00088224251794)
(0.00092325265554 0.000275244232918 0.000241926599115 0.000923252655464 1.23834001868e-16 0.000923252655616)
(0.000965286855593 0.000308965067977 0.000243830455822 0.000965286855528 1.5046170759e-16 0.000965286855658)
(0.00100747326295 0.000340638202462 0.000244833589526 0.00100747326289 5.07502023647e-17 0.001007473263)
(0.00104918767671 0.000370421931623 0.000244769092913 0.00104918767667 -1.89388522903e-16 0.00104918767675)
(0.0010900089688 0.000398488701425 0.000243518875354 0.00109000896877 -5.80156531877e-16 0.00109000896883)
(0.00112967861345 0.000425018130925 0.000241013034008 0.00112967861344 -1.11490805223e-15 0.00112967861347)
(0.00116806536826 0.000450190391686 0.000237228305918 0.00116806536825 -1.77120037094e-15 0.00116806536827)
(0.00120513483793 0.000474180036545 0.000232185338223 0.00120513483793 -2.53906894709e-15 0.00120513483792)
(0.00124092322625 0.000497150394338 0.000225944638834 0.00124092322626 -3.38010844569e-15 0.00124092322623)
(0.00127551457527 0.00051924867434 0.000218601239307 0.00127551457529 -4.26275538427e-15 0.00127551457525)
(0.00130902094496 0.000540601926459 0.000210278268332 0.00130902094499 -5.16071297554e-15 0.00130902094493)
(0.00134156516997 0.000561313976898 0.000201119764901 0.00134156517001 -6.03980519053e-15 0.00134156516994)
(0.00137326598037 0.000581463406119 0.000191283145735 0.00137326598041 -6.8660444334e-15 0.00137326598033)