/*--------------------------------*- C++ -*----------------------------------*\
| =========                 |                                                 |
| \\      /  F ield         | OpenFOAM: The Open Source CFD Toolbox           |
|  \\    /   O peration     | Version:  3.0.1                                 |
|   \\  /    A nd           | Web:      www.OpenFOAM.org                      |
|    \\/     M anipulation  |                                                 |
\*---------------------------------------------------------------------------*/
FoamFile
{
    version     2.0;
    format      ascii;
    class       volSymmTensorField;
    location    "50000";
    object      R;
}
// * * * * * * * * * * * * * * * * * * * * * * * * * * * * * * * * * * * * * //

dimensions      [0 2 -2 0 0 0 0];

internalField   nonuniform List<symmTensor> 
2500
(
(0.000700503426718 3.48557418909e-05 2.6447082827e-05 0.000460708482018 -3.51274541028e-06 0.000455226446472) 
(0.000730431914625 8.05618624327e-05 2.73488020549e-05 0.000467153972906 -5.19376963957e-06 0.000466383117993) 
(0.000779778671653 0.00012510873767 2.72552949929e-05 0.000478602436667 -7.05313104105e-06 0.000486063325874) 
(0.000848830809697 0.00016979163726 2.45162476044e-05 0.000494197180123 -8.75054179891e-06 0.000512817481293) 
(0.000936400376536 0.000214982685856 2.06631533711e-05 0.000513040029309 -1.00597437582e-05 0.000546444775383) 
(0.00103471357462 0.000260145999881 1.70226439784e-05 0.000534735060667 -1.07506171081e-05 0.000585760026606) 
(0.00114023791778 0.000305224321494 1.3439648138e-05 0.000558917274144 -1.09292967782e-05 0.000630553410736) 
(0.00125236855841 0.000350017996312 1.07242238596e-05 0.000585281058384 -1.07833439271e-05 0.000681555752704) 
(0.00136632944928 0.000393508819114 7.89688668725e-06 0.000612588498076 -1.03022274018e-05 0.000734484803985) 
(0.00148106462463 0.000435332725217 4.56368413783e-06 0.000640556072011 -1.02065447792e-05 0.000788492650112) 
(0.00159614442201 0.000475312822444 5.61074824908e-07 0.00066861206767 -1.02095282007e-05 0.000842546886371) 
(0.00171006696882 0.000513096010979 -3.63640596333e-06 0.000696673637452 -1.03855337293e-05 0.000897423293979) 
(0.00182137671958 0.000548290271597 -6.82782454393e-06 0.000724336902683 -1.01244794473e-05 0.00095262191795) 
(0.00193041015219 0.000580739961033 -8.79048684822e-06 0.000751227116285 -9.58813046935e-06 0.00100734765678) 
(0.0020363918578 0.000610825209071 -1.0698763478e-05 0.000776800889326 -9.44507339279e-06 0.00106109810415) 
(0.00213982187493 0.000638891654807 -1.22856103515e-05 0.000801054213019 -9.59602929215e-06 0.00111393151402) 
(0.00224320964816 0.000664796110859 -1.32174248189e-05 0.000824140981159 -9.74025743475e-06 0.00116487324487) 
(0.0023480265677 0.000688512111406 -1.29893674362e-05 0.000845779320481 -9.23996551114e-06 0.0012119649926) 
(0.00245507632746 0.000710606235615 -1.16270595759e-05 0.000865718530297 -7.7492396132e-06 0.00125569594646) 
(0.00256649093733 0.000730973327603 -9.5760512436e-06 0.000883574131159 -5.32225145849e-06 0.00129764755108) 
(0.00268382452813 0.000749396773848 -7.71542234495e-06 0.000898822131301 -2.23378971448e-06 0.00133758160677) 
(0.00280758798237 0.000765894892965 -7.20978390449e-06 0.000911062029403 8.98184509253e-07 0.00137429462032) 
(0.00293878267113 0.000780541680116 -7.7126850216e-06 0.000919762756453 3.22980275827e-06 0.00140725274075) 
(0.00307941851067 0.000793372561111 -7.78900798265e-06 0.000924249911195 4.6636360784e-06 0.00143669686631) 
(0.00323196835861 0.000804658092926 -7.14361285744e-06 0.000924012458327 5.70096209905e-06 0.0014623457981) 
(0.00339923104671 0.000814542836633 -6.64234603308e-06 0.000918654026795 6.66878238661e-06 0.00148355109651) 
(0.00358316579723 0.000822969764155 -6.37217382216e-06 0.000908011936209 7.39880006624e-06 0.0015006585718) 
(0.00378677155227 0.000829890187912 -6.2949973891e-06 0.0008919013239 7.73145602935e-06 0.00151453429579) 
(0.00401420027599 0.000835412897834 -6.27431371352e-06 0.000870072281966 7.74821600099e-06 0.00152514610513) 
(0.00426806184819 0.000839365055114 -6.39468524462e-06 0.000842291431781 7.53237440738e-06 0.00153187358576) 
(0.00454942423412 0.000841235367451 -7.06809486387e-06 0.000808392108882 6.99129831844e-06 0.00153434294062) 
(0.00485691299552 0.000840572692205 -8.71543835945e-06 0.00076841035879 5.99101279799e-06 0.00153250654764) 
(0.00518866093545 0.000837097263732 -1.14722845744e-05 0.000722677958127 4.60043138399e-06 0.00152589093688) 
(0.00554026617716 0.000830292194667 -1.47972705847e-05 0.000671750534762 3.15835776844e-06 0.00151368145675) 
(0.00590444724451 0.000819133864482 -1.78388490348e-05 0.000616323019155 1.9417834384e-06 0.00149460176959) 
(0.00627148316735 0.000802762889438 -1.97663184345e-05 0.000557108930923 1.15162619581e-06 0.00146734067603) 
(0.00662826337424 0.000780044033127 -2.01040679278e-05 0.000495027047573 7.04564877279e-07 0.00143030959704) 
(0.00695755678462 0.000750010237166 -1.89924935794e-05 0.000431127069349 4.81955444249e-07 0.00138171090241) 
(0.00723611318775 0.000711500255953 -1.714419311e-05 0.000366703229461 3.66463771146e-07 0.00132014228734) 
(0.00742657729139 0.000662538113356 -1.53499792732e-05 0.000303285162563 3.80235229334e-07 0.00124475975279) 
(0.00747635370227 0.000601380317828 -1.39220264143e-05 0.000242906856745 5.08242716693e-07 0.00115604298919) 
(0.00733681509416 0.000527929399566 -1.25005969595e-05 0.000187255830359 6.85410129372e-07 0.00105609127176) 
(0.00695056579293 0.000442693475675 -1.09674917505e-05 0.000137600984021 8.17238691522e-07 0.00094569634759) 
(0.00627026544765 0.000348495181048 -9.22176204295e-06 9.51119869599e-05 8.52577804297e-07 0.000825912376873) 
(0.00528220190512 0.000250939270373 -7.41426850701e-06 6.04293699896e-05 7.81618663712e-07 0.000697211225554) 
(0.00403985815546 0.000158840316289 -5.72644766068e-06 3.39411749374e-05 5.78198801357e-07 0.000559861894531) 
(0.0026832640496 8.30330885564e-05 -4.00396761871e-06 1.58335819404e-05 3.66974266048e-07 0.000413837553058) 
(0.00144697893399 3.30169843191e-05 -2.45703290677e-06 5.62675449966e-06 1.70365644857e-07 0.000262291192456) 
(0.000520334625441 6.93411337115e-06 -9.99560591161e-07 9.52705367956e-07 4.63823741741e-08 0.00011915670791) 
(5.86302555507e-05 2.53731037201e-07 -1.22230745008e-07 1.77154620441e-08 2.28522112664e-09 1.75012868713e-05) 
(0.000724280241553 3.21952160105e-05 7.06486982181e-05 0.000471974229774 -5.57803786774e-06 0.00046113231848) 
(0.000751846520751 7.6448952492e-05 7.07745020409e-05 0.000477600126658 -1.0053526115e-05 0.000472346835713) 
(0.0007989356673 0.000120284073869 6.84218077876e-05 0.000488130753125 -1.4191044527e-05 0.000491605745753) 
(0.000864835773953 0.000164741837593 6.24294500613e-05 0.000502899158175 -1.8130461073e-05 0.00051767012794) 
(0.00094614935118 0.000209512436737 5.49900732929e-05 0.000521096861322 -2.09785442256e-05 0.000550457442038) 
(0.00103900897589 0.000254597118778 4.76009991355e-05 0.000542085342618 -2.27680957573e-05 0.000588863440265) 
(0.00114085636751 0.000299604987321 4.01922355508e-05 0.000565408516406 -2.40471189108e-05 0.000633019169103) 
(0.00124934360453 0.000344117720594 3.34861819125e-05 0.00059060686485 -2.43984020707e-05 0.000682156154302) 
(0.00135902588448 0.000387204576483 2.71223871041e-05 0.00061661879535 -2.38707177736e-05 0.000734001807006) 
(0.0014690515798 0.000428578700039 2.04387652721e-05 0.000643091822462 -2.32732902571e-05 0.000787449672392) 
(0.00157974177283 0.00046822349394 1.31524546477e-05 0.000669482401526 -2.24887382808e-05 0.000840133847798) 
(0.00169063244543 0.000505735082131 6.83016548147e-06 0.000695869262534 -2.09932153021e-05 0.00089348008113) 
(0.00180007000915 0.000540711570116 1.6487780785e-06 0.000721952398309 -1.92478432847e-05 0.000947238158846) 
(0.00191016521896 0.00057317590062 -2.45808392251e-06 0.000747649179033 -1.79818334603e-05 0.00100123459311) 
(0.00201767537669 0.000603248724421 -5.99949710459e-06 0.000772635196294 -1.71429398655e-05 0.00105492772803) 
(0.0021230116807 0.000631111400859 -9.41247908748e-06 0.000796541977694 -1.6132287039e-05 0.00110762037295) 
(0.00222864964232 0.000656891250391 -1.15322525849e-05 0.000819292944425 -1.47603376491e-05 0.00115776966257) 
(0.00233701190284 0.000680153473808 -1.15732233139e-05 0.000840672015051 -1.29958603644e-05 0.00120427545149) 
(0.00244717336106 0.000701331497598 -1.12731543345e-05 0.000860260456221 -1.12248360356e-05 0.00124728874569) 
(0.00256041348656 0.000721061111902 -1.09533337387e-05 0.000877652842495 -9.37826798193e-06 0.00128799261597) 
(0.00268074072635 0.000740059264631 -1.01677321228e-05 0.000892487099159 -7.21981947741e-06 0.00132685968873) 
(0.00280891649568 0.000757931602074 -8.95791028352e-06 0.000904468492022 -4.78776385482e-06 0.00136341272346) 
(0.00294500714996 0.000774202172045 -8.1487582875e-06 0.000912985940839 -2.19351337983e-06 0.00139683415274) 
(0.0030896889162 0.000788870863073 -7.93319406439e-06 0.000917317937048 5.19830170634e-07 0.0014265281219) 
(0.00324555021281 0.000802304582772 -8.23026023196e-06 0.00091708291646 3.10328825636e-06 0.00145213905935) 
(0.0034165129254 0.000814478055772 -8.76022160341e-06 0.000912064624087 5.25786095616e-06 0.00147405112623) 
(0.00360477187622 0.000825040052543 -9.12988361198e-06 0.00090202876322 6.65238755848e-06 0.00149231718114) 
(0.00381278255901 0.000833946496397 -9.53588972433e-06 0.000886677325137 7.38874067703e-06 0.00150706654797) 
(0.00404425124455 0.000841034147647 -1.02377668731e-05 0.000865691585244 7.81517350651e-06 0.00151845320496) 
(0.00430089838282 0.000845901189936 -1.13491727726e-05 0.000838616454157 7.80123436974e-06 0.00152635484751) 
(0.00458400772428 0.000848308913142 -1.25751723179e-05 0.000805276599363 6.93333999461e-06 0.00153060343798) 
(0.00489149597729 0.000847821845375 -1.43212238673e-05 0.000765915143032 5.3889538537e-06 0.00153055937235) 
(0.00522100034772 0.000843785249191 -1.69654546293e-05 0.000720736226331 3.49000951878e-06 0.00152497505679) 
(0.00556812732566 0.000835819231212 -2.04671073542e-05 0.000670451736432 1.6658355303e-06 0.00151286398362) 
(0.00592686558822 0.000823444897427 -2.41945146436e-05 0.000615582885385 1.56200573592e-07 0.00149305298454) 
(0.00628896028353 0.000806096543542 -2.71640098697e-05 0.000556878540009 -1.08593431808e-06 0.00146477602749) 
(0.00664179780527 0.000783142038952 -2.87660723102e-05 0.000495243512197 -1.89192861184e-06 0.0014268905971) 
(0.00696919895329 0.000753758403981 -2.88732167971e-05 0.000431860653736 -2.289645936e-06 0.00137791648595) 
(0.00724635481322 0.000716322915296 -2.8208802064e-05 0.000367859377147 -2.24119823998e-06 0.00131642517949) 
(0.00743625520517 0.000668460342643 -2.69464575093e-05 0.000304648144583 -1.98135357188e-06 0.00124150114753) 
(0.00748612205742 0.000607732661816 -2.49969647999e-05 0.000244156597308 -1.73381512286e-06 0.0011531900538) 
(0.00734748653776 0.000534248921283 -2.26792430607e-05 0.000188229567501 -1.51729731053e-06 0.00105348791112) 
(0.00696246407604 0.000448451614227 -2.03131460808e-05 0.00013824883244 -1.26361749778e-06 0.00094313600685) 
(0.00628381221312 0.000353329410105 -1.78290961231e-05 9.54948693014e-05 -9.70303795218e-07 0.000823569388686) 
(0.00529746430645 0.00025463512379 -1.52417513574e-05 6.06366615107e-05 -6.64616739538e-07 0.000695302951637) 
(0.00405599567443 0.00016137082908 -1.22227648005e-05 3.40642439597e-05 -4.08052779846e-07 0.000558645345204) 
(0.00269824920514 8.45464318293e-05 -8.76291203397e-06 1.59063995943e-05 -2.1375849996e-07 0.000413394339571) 
(0.00145732590185 3.36989018066e-05 -5.2032031872e-06 5.65868568053e-06 -8.15518422892e-08 0.000262401786767) 
(0.000524589193579 7.10291011889e-06 -2.01600491516e-06 9.60357669689e-07 -1.1837071882e-08 0.00011940425712) 
(5.91004076985e-05 2.59412875613e-07 -2.47881304176e-07 1.78778095427e-08 1.89312875704e-10 1.75758411516e-05) 
(0.000771010494382 2.88912115809e-05 0.000114163070761 0.00049136311222 -6.44478835195e-06 0.000472460357904) 
(0.000793763958992 7.16798144301e-05 0.000114323852407 0.000496147963895 -1.38445017997e-05 0.000483079504182) 
(0.000834784747818 0.000113706621437 0.000109337894386 0.000505384928536 -2.04737022442e-05 0.000501509639955) 
(0.000892933371962 0.000156515393304 0.000100817230759 0.000518805634104 -2.62394809184e-05 0.00052618983726) 
(0.000964554459052 0.000200110781384 9.0035476021e-05 0.000535811693054 -3.04631183214e-05 0.000557288372875) 
(0.0010484592899 0.00024472130107 7.90992764672e-05 0.000555587256213 -3.36002081471e-05 0.000594674770879) 
(0.00114243475311 0.000289582615652 6.81243947711e-05 0.000577325410299 -3.61630294478e-05 0.000637215819042) 
(0.00124396956414 0.000334193801929 5.80400057729e-05 0.000600836315086 -3.70856395666e-05 0.000683357531006) 
(0.00134773225684 0.000377195858639 4.90547576357e-05 0.000624964185135 -3.64492934002e-05 0.000732421218063) 
(0.00145219056468 0.00041796188651 3.98160942715e-05 0.000649389154009 -3.48072160039e-05 0.000783970286786) 
(0.00155647896874 0.000456364240942 2.98160653161e-05 0.000673694424459 -3.28142296923e-05 0.000834846973914) 
(0.00166161941998 0.00049281493216 2.0370181374e-05 0.000698170916248 -3.04263471514e-05 0.000886072726228) 
(0.00176893435929 0.00052757693039 1.26535153486e-05 0.000722738454159 -2.7782673324e-05 0.000938534189088) 
(0.00187981955219 0.000560550039315 6.25831766154e-06 0.000746954084472 -2.57767979725e-05 0.000991879972756) 
(0.00199049030905 0.000591401138222 7.95293523243e-07 0.000770301363383 -2.38348880451e-05 0.00104426726816) 
(0.00209968641957 0.000619959468527 -3.57235942336e-06 0.00079286336297 -2.14167362596e-05 0.00109503975674) 
(0.00220841459778 0.000645883797747 -6.20083970563e-06 0.000814618213257 -1.85736742238e-05 0.00114358788304) 
(0.00232013147327 0.000669733425793 -7.09524710633e-06 0.000835448644073 -1.60851313146e-05 0.00119016494459) 
(0.00243477164638 0.000692314410709 -8.48051013691e-06 0.000854735848346 -1.4245727013e-05 0.0012335861081) 
(0.00255273176161 0.000713669792241 -1.03724351073e-05 0.000871726138798 -1.26835407492e-05 0.0012736744628) 
(0.0026756623267 0.000733766136974 -1.14897918291e-05 0.000885943624567 -1.08782808312e-05 0.00131150481591) 
(0.00280539586955 0.000752739026026 -1.12919829326e-05 0.00089700213627 -8.53914890124e-06 0.00134692951521) 
(0.002943377444 0.000770512548943 -1.04950870187e-05 0.000904708799691 -5.88529161879e-06 0.00137947622812) 
(0.00309219945761 0.000786810097014 -1.06136426829e-05 0.000908857176218 -3.1966777311e-06 0.00140906451055) 
(0.00325472665258 0.000801523067572 -1.22992053571e-05 0.000909128020505 -7.01012109929e-07 0.00143564055795) 
(0.0034329812285 0.000814818442827 -1.43100689578e-05 0.000905171337861 1.26319667475e-06 0.0014596191022) 
(0.00362825009885 0.000826571412456 -1.61250723143e-05 0.000896315752059 2.50685814448e-06 0.00148035346689) 
(0.00384350358495 0.000836623641162 -1.7554623188e-05 0.000881840694102 2.98871855535e-06 0.00149701960344) 
(0.00408123612587 0.00084481677435 -1.84898542445e-05 0.000861433950136 2.57460617868e-06 0.00150951133933) 
(0.00434154367794 0.000850772234375 -1.951787114e-05 0.000835010812181 1.50314709153e-06 0.00151870165146) 
(0.00462489179235 0.000854157269602 -2.1163130083e-05 0.00080256475903 2.48952808992e-07 0.00152453062347) 
(0.00493046594395 0.000854531119741 -2.32899005894e-05 0.000764185126735 -8.32848171193e-07 0.00152567863086) 
(0.00525572085757 0.00085134223713 -2.57311679079e-05 0.000719967091501 -1.53433165956e-06 0.0015204894976) 
(0.00559714148567 0.000843914510095 -2.85036877797e-05 0.000670190162347 -1.79702059557e-06 0.00150778766606) 
(0.00595017842038 0.000831585797763 -3.14226323998e-05 0.000615388394567 -1.663888985e-06 0.00148716167668) 
(0.00630755218143 0.000813720116649 -3.3961785581e-05 0.00055635905729 -1.22506775312e-06 0.0014580924024) 
(0.00665747322257 0.000789632956775 -3.56754232997e-05 0.000494158958963 -6.99325102488e-07 0.0014194286649) 
(0.00698184826245 0.000758359042334 -3.64028236982e-05 0.000430058074492 -3.44426847185e-07 0.0013697580186) 
(0.00725549063674 0.000718612561554 -3.59115582417e-05 0.000365592052028 -3.52470049383e-07 0.0013082523667) 
(0.00744047901147 0.000668290612946 -3.39886647757e-05 0.000302329130781 -6.36806398827e-07 0.00123396497793) 
(0.00748416091729 0.000605794945916 -3.08409312243e-05 0.000242146848118 -8.73189641788e-07 0.00114660529655) 
(0.00733854261364 0.000531317536397 -2.70237210936e-05 0.000186668688781 -9.21679424638e-07 0.00104781016757) 
(0.00694730606964 0.00044531416549 -2.29678488235e-05 0.00013715610976 -8.43072358824e-07 0.00093826908917) 
(0.0062650480532 0.000350527807703 -1.87505563107e-05 9.47698103881e-05 -7.12110960649e-07 0.000819340370217) 
(0.00527820582317 0.000252480525503 -1.42323477959e-05 6.02063133487e-05 -5.57345455544e-07 0.000691776584219) 
(0.00403926899174 0.000159948001413 -9.62366184331e-06 3.38236277747e-05 -3.76954604857e-07 0.000555886926209) 
(0.00268624031147 8.37930629614e-05 -5.49253833962e-06 1.57853248824e-05 -1.93943718852e-07 0.00041141762144) 
(0.00145082089353 3.34302991554e-05 -2.46197747924e-06 5.61165652681e-06 -6.26723830659e-08 0.000261205939395) 
(0.000522453488054 7.05366521426e-06 -6.41849380875e-07 9.50498635405e-07 -4.45072288846e-09 0.000118938427826) 
(5.88756436797e-05 2.58947164811e-07 -3.96195337122e-08 1.76870348111e-08 3.37603223409e-10 1.75110487969e-05) 
(0.000839695140507 2.49671502688e-05 0.000157224145617 0.000515949676609 -7.85087651608e-06 0.000487846846324) 
(0.000858058178206 6.62725056752e-05 0.00015752083472 0.000520977304858 -1.72020948921e-05 0.000498061783072) 
(0.000890940421367 0.000106304315449 0.000151768320386 0.000529247476169 -2.56595259652e-05 0.000515204093589) 
(0.000935821940816 0.000146238717625 0.00014090819316 0.0005409965018 -3.27248704847e-05 0.000538472873189) 
(0.000993623776236 0.000187690227811 0.000126886617037 0.000556234131453 -3.85221751986e-05 0.000567307196049) 
(0.00106498534513 0.000230445503722 0.000112581027432 0.000574157045417 -4.2836369017e-05 0.000602928339926) 
(0.00114596487422 0.000273616426669 9.84350874549e-05 0.000593350700629 -4.6148152167e-05 0.000642994280882) 
(0.0012347003028 0.000316603077026 8.54171566575e-05 0.000613278319669 -4.77412290842e-05 0.000685082981538) 
(0.00132947013798 0.000358935009232 7.41986928698e-05 0.000633980901738 -4.72576850034e-05 0.000730457625657) 
(0.00142762313002 0.000399688831548 6.31049017712e-05 0.000655696352646 -4.51817963089e-05 0.000779014833271) 
(0.00152789190962 0.000438418943059 5.11437654628e-05 0.000678148634584 -4.23182760171e-05 0.000827814568734) 
(0.00163144630921 0.000475202798111 3.85987812687e-05 0.000701064032039 -3.93283213303e-05 0.000876778383367) 
(0.00173748207268 0.000510200986254 2.75766692975e-05 0.000724111141044 -3.64232023706e-05 0.000927212956717) 
(0.00184780553511 0.000543689663608 1.85579622482e-05 0.000746855960301 -3.32535223676e-05 0.000978992600475) 
(0.00195983531255 0.000575703473174 1.06285790314e-05 0.000768755390674 -2.99109266601e-05 0.00102948050998) 
(0.00207100660323 0.00060567891353 4.77555330378e-06 0.000790281455799 -2.67048251475e-05 0.00107835019515) 
(0.0021828911937 0.000634120428236 1.02144227902e-06 0.000811441778441 -2.34457412629e-05 0.00112589573843) 
(0.00229848838577 0.000660759527546 -1.43140522515e-06 0.000831894571064 -2.0379795983e-05 0.00117252502834) 
(0.00241725389223 0.000685714373916 -4.43002845014e-06 0.000850530181029 -1.73599984043e-05 0.00121611517773) 
(0.00253815518697 0.00070889527719 -7.90926417385e-06 0.00086682216195 -1.46405608524e-05 0.00125624523772) 
(0.00266369639804 0.000730467991436 -1.07727491149e-05 0.000880514079831 -1.22716660456e-05 0.00129364671899) 
(0.00279710997375 0.000750510366583 -1.23363597449e-05 0.000891326512755 -1.03114612991e-05 0.00132888829791) 
(0.00294063437049 0.000769382623609 -1.30831329632e-05 0.000899024724397 -8.52662074347e-06 0.0013618563885) 
(0.0030969934707 0.000787501745188 -1.50159946207e-05 0.000903462279475 -7.24495008075e-06 0.00139205934592) 
(0.0032650349904 0.000803779076682 -1.78857526349e-05 0.000903934454902 -6.2153609159e-06 0.00141931813982) 
(0.00344752665501 0.000818134262378 -2.10324319648e-05 0.000899976405239 -5.63519998219e-06 0.00144383994631) 
(0.00364586599785 0.000830227699462 -2.32973816662e-05 0.000891239756319 -4.95726252568e-06 0.00146548950585) 
(0.003863700657 0.000839889402678 -2.55431821353e-05 0.000877115791461 -4.35212943272e-06 0.00148384923255) 
(0.00410256638707 0.000846983780902 -2.8167643805e-05 0.000857173906827 -3.92749634053e-06 0.00149880052942) 
(0.00436375946522 0.000851962677346 -3.02353195893e-05 0.000830961817306 -3.88177488726e-06 0.00150946025805) 
(0.00464839216329 0.000854310847057 -3.1892690925e-05 0.000798170253002 -3.75354289007e-06 0.00151534669389) 
(0.00495588744266 0.000853529798009 -3.29504064841e-05 0.000758915457096 -3.33193759819e-06 0.00151552432339) 
(0.00528250911142 0.00084917295797 -3.42226222167e-05 0.000713885162195 -2.9364822879e-06 0.00150948403063) 
(0.00562512653003 0.000840385906278 -3.55929266019e-05 0.000663500470606 -2.27184631455e-06 0.00149607998837) 
(0.00597728994566 0.000826909384447 -3.7557844288e-05 0.00060844639519 -1.53335193474e-06 0.0014749608526) 
(0.00633253987101 0.000807975405541 -3.94994098477e-05 0.000549546927482 -7.15338238488e-07 0.00144571571294) 
(0.00667970170923 0.000783124135708 -4.09973171849e-05 0.00048770930177 3.90769587345e-08 0.00140777447288) 
(0.00700227548972 0.00075136599948 -4.16053753917e-05 0.000424113509593 5.60444510499e-07 0.00135987159874) 
(0.00727492729827 0.00071128250911 -4.11925522779e-05 0.000360403162848 6.40736914806e-07 0.00130122379937) 
(0.00745964533204 0.000660901756919 -3.96017574712e-05 0.000297919240487 3.0073483758e-07 0.00122898464074) 
(0.00750141450398 0.000598474762649 -3.70384691611e-05 0.000238540655418 -3.24491134958e-07 0.00114283619694) 
(0.00735156413168 0.000524093198073 -3.37239723108e-05 0.000183719578724 -9.36785299879e-07 0.00104429341008) 
(0.00695361029065 0.000438354634065 -3.01232190749e-05 0.000134890645525 -1.38019786833e-06 0.000934926217015) 
(0.00626211897324 0.00034429626366 -2.62354143271e-05 9.31659341888e-05 -1.52468758184e-06 0.000816293464784) 
(0.00526750963881 0.000247352335368 -2.15080019281e-05 5.91516518219e-05 -1.34605150343e-06 0.000689179152508) 
(0.00402358683058 0.000156191746608 -1.58901278541e-05 3.32078571718e-05 -9.78468582524e-07 0.000553715312095) 
(0.00266982765137 8.14413229479e-05 -1.00237342184e-05 1.54752174805e-05 -5.77441807747e-07 0.000409612477351) 
(0.0014385149436 3.22850506691e-05 -5.08501687176e-06 5.49099926552e-06 -2.55402894153e-07 0.00025979880571) 
(0.000517174345108 6.77843804074e-06 -1.55343841169e-06 9.30260322931e-07 -5.82520122011e-08 0.000118142922344) 
(5.82391957271e-05 2.46759042621e-07 -1.55178185335e-07 1.7249391416e-08 -2.37030689378e-09 1.73489597063e-05) 
(0.000927314162533 2.10872397983e-05 0.00020101817834 0.000545866769521 -9.48931857068e-06 0.000506323604191) 
(0.000940659146187 5.88323472465e-05 0.000200712950133 0.000550122851468 -2.05054442717e-05 0.000515544547084) 
(0.000964082309677 9.67573821084e-05 0.000194637569318 0.000557295398646 -2.99089584087e-05 0.000531573889101) 
(0.000995804972658 0.000135005814374 0.000182426859984 0.000567542068631 -3.80650731203e-05 0.000553531581192) 
(0.00103801107132 0.000174220544613 0.000165912173131 0.000580637603299 -4.49353519041e-05 0.000580050773501) 
(0.00109077449159 0.000213971333692 0.000148953470945 0.000595412406811 -5.02750505507e-05 0.000612417426769) 
(0.00115648660954 0.000254415059237 0.000132644978692 0.000611706140076 -5.38327631425e-05 0.000649525439417) 
(0.00122921195277 0.000294974348547 0.000116794602058 0.000628140608312 -5.56372101522e-05 0.000687653989551) 
(0.00131163769499 0.000335766357925 0.000102992567576 0.000645707330656 -5.5705360686e-05 0.00072927563505) 
(0.00140108679478 0.000375817130785 8.96024615434e-05 0.00066453856912 -5.40593979754e-05 0.000774392027408) 
(0.00149507887383 0.000414592610787 7.50417794359e-05 0.000684140991689 -5.1455194213e-05 0.000819995933258) 
(0.00159552500105 0.000452075871104 6.04976583625e-05 0.000705224143429 -4.81789468239e-05 0.000867113467685) 
(0.0016994346042 0.000488222157296 4.65086666738e-05 0.000725724663287 -4.46235133118e-05 0.000914638004444) 
(0.00180983972668 0.000522903127225 3.46429262243e-05 0.000746493976734 -4.08473555782e-05 0.00096366448705) 
(0.00192281595218 0.000556398979421 2.41151074315e-05 0.00076713604724 -3.69204329899e-05 0.00101230349223) 
(0.0020368907434 0.000588774579445 1.50007399148e-05 0.000787807150055 -3.29599905142e-05 0.00105947057835) 
(0.00215206100323 0.000619625710802 8.84034979177e-06 0.000808301884453 -2.90361533704e-05 0.00110585495865) 
(0.00227171981226 0.000649293406736 4.58510533056e-06 0.000827941846516 -2.4541722521e-05 0.0011512048142) 
(0.00239419457855 0.000676714833394 4.35175790131e-07 0.000846171646165 -2.03251910072e-05 0.00119473030622) 
(0.00252020988104 0.000702797758517 -4.31177566717e-06 0.000862737712613 -1.67706036193e-05 0.00123609214416) 
(0.00265187647576 0.000727389912445 -9.01476201862e-06 0.000877518079091 -1.43967093743e-05 0.00127552985054) 
(0.00279037241008 0.000749605542346 -1.31562784773e-05 0.000889381432214 -1.29524677618e-05 0.00131156251255) 
(0.00293859074164 0.000770441430587 -1.69080140195e-05 0.000897805803654 -1.17811507275e-05 0.0013447972705) 
(0.00309942105903 0.000789930260413 -2.04036066408e-05 0.000902206103244 -1.06245371321e-05 0.00137552360119) 
(0.00327390784717 0.000807187635155 -2.31554899178e-05 0.000901989333645 -9.72691071118e-06 0.00140407054651) 
(0.00346196593959 0.000821828328012 -2.57232127321e-05 0.000896914846657 -9.30868418229e-06 0.00142950044778) 
(0.00366597012495 0.000833724732341 -2.78659673535e-05 0.000886614067648 -9.09911572065e-06 0.00145086195594) 
(0.00388833270533 0.000842942762702 -2.97397077664e-05 0.000870705008108 -8.6282213025e-06 0.00146827863654) 
(0.0041297981922 0.000849304216998 -3.20747947273e-05 0.000849383336423 -7.70636945339e-06 0.00148235419771) 
(0.0043914982166 0.000852642773671 -3.48551840247e-05 0.000822472942409 -6.40921722951e-06 0.0014929021274) 
(0.00467654050665 0.000853220709404 -3.74932495821e-05 0.000789366771566 -5.1834414184e-06 0.001498885083) 
(0.00498487316336 0.000850738755009 -3.94828225541e-05 0.000750324587054 -4.2689269948e-06 0.00149983697013) 
(0.00531471785823 0.000845450778619 -4.02396524605e-05 0.000705438120062 -3.67965134981e-06 0.00149415848894) 
(0.00566073081538 0.000836346560526 -4.09655946307e-05 0.000655257193124 -3.24322910984e-06 0.00148094690017) 
(0.00602085670055 0.000822850806607 -4.24861309157e-05 0.00060057774922 -3.0625974969e-06 0.00146008829521) 
(0.0063797139224 0.000803855377667 -4.49959817324e-05 0.000542133357163 -2.64556510684e-06 0.0014309475319) 
(0.00673083289949 0.000778822589166 -4.84280461483e-05 0.00048094996969 -2.62685951172e-06 0.00139379703697) 
(0.00705237628833 0.000746969482271 -5.09846799928e-05 0.000418208025959 -2.42877272124e-06 0.00134742993225) 
(0.00732205540089 0.000707124904653 -5.21111999319e-05 0.000355228316276 -2.2865356441e-06 0.001290254027) 
(0.00750009013055 0.000657056818127 -5.16507881712e-05 0.000293554827822 -2.22611966876e-06 0.00121991765532) 
(0.00753280207912 0.000595002713466 -4.97310186632e-05 0.000235029507045 -2.27418179671e-06 0.00113575906136) 
(0.00737219512007 0.000521104472378 -4.67056869261e-05 0.000181134131487 -2.36033969981e-06 0.00103905837024) 
(0.0069629022931 0.000435900774039 -4.28904980769e-05 0.000133049562574 -2.38740765587e-06 0.00093078925277) 
(0.00626335170957 0.000342251159676 -3.83782228155e-05 9.18044010929e-05 -2.36690179908e-06 0.000812448770667) 
(0.00526074130501 0.000245844309601 -3.23949127132e-05 5.82523966442e-05 -1.97572460278e-06 0.000685261383103) 
(0.00401246934434 0.00015522849174 -2.45974656927e-05 3.26727970062e-05 -1.38284552481e-06 0.000549720831049) 
(0.00265930720462 8.0913666323e-05 -1.60643583091e-05 1.52003352963e-05 -7.93913789773e-07 0.000406007444817) 
(0.00143137713078 3.20860566191e-05 -8.44132346497e-06 5.37461048152e-06 -3.35926966307e-07 0.000257072705248) 
(0.000514096348046 6.70303055253e-06 -2.76522516862e-06 9.08129219497e-07 -8.15049357257e-08 0.000116815983767) 
(5.78722592132e-05 2.43937318246e-07 -2.82001855364e-07 1.67482138792e-08 -3.70395267844e-09 1.71372577662e-05) 
(0.0010272659528 1.89326936574e-05 0.000245650293 0.00058216958706 -1.00426134253e-05 0.000527317327175) 
(0.00103611494431 5.30822484197e-05 0.000244224849217 0.000584916563376 -2.26630540377e-05 0.000535448680996) 
(0.00105100971697 8.81244963519e-05 0.000237403819633 0.000590401215408 -3.31299027802e-05 0.00055034887944) 
(0.00107079580322 0.000124041792075 0.000224456441802 0.000598201068673 -4.20395689346e-05 0.000570371317462) 
(0.00109691265299 0.000160288253843 0.000207075404641 0.000608336726723 -4.94665868602e-05 0.000594617879819) 
(0.00113235809169 0.000196866438768 0.000188815525848 0.000619841470247 -5.56336638729e-05 0.00062408172519) 
(0.00117844646606 0.000234128930854 0.000170577402417 0.000632234601699 -5.97315936488e-05 0.000656714996678) 
(0.00123745539632 0.000272434798598 0.000152726588639 0.000646119066173 -6.18013868629e-05 0.000691868899603) 
(0.00130251788813 0.000310631686663 0.000135738180703 0.000660090982135 -6.23180868563e-05 0.000728963408508) 
(0.00138086419409 0.000349685583128 0.000119777738221 0.000675962015796 -6.10732065812e-05 0.000770684954629) 
(0.00146526711863 0.000388865579056 0.000102124367412 0.000692357645615 -5.89373279533e-05 0.000812887314509) 
(0.00155843172213 0.000427692372223 8.43552649252e-05 0.000709999189964 -5.59905626802e-05 0.000856614522078) 
(0.00165984777778 0.000465061988525 6.80077977956e-05 0.000728389173644 -5.26262079382e-05 0.000901715489343) 