/*--------------------------------*- C++ -*----------------------------------*\
| =========                 |                                                 |
| \\      /  F ield         | OpenFOAM: The Open Source CFD Toolbox           |
|  \\    /   O peration     | Version:  3.0.1                                 |
|   \\  /    A nd           | Web:      www.OpenFOAM.org                      |
|    \\/     M anipulation  |                                                 |
\*---------------------------------------------------------------------------*/
FoamFile
{
    version     2.0;
    format      ascii;
    class       volSymmTensorField;
    location    "50000";
    object      R;
}
// * * * * * * * * * * * * * * * * * * * * * * * * * * * * * * * * * * * * * //

dimensions      [0 2 -2 0 0 0 0];

internalField   nonuniform List<symmTensor> 
2500
(
(0.000989876908769 7.89149569922e-05 7.02942744573e-05 0.000408115666904 -1.7924232684e-05 0.000412668634316) 
(0.000991706483835 9.93075437656e-05 7.332656362e-05 0.00043260581614 -1.93313486841e-05 0.000440425653665) 
(0.00100340055082 0.000124157322758 7.68666438607e-05 0.000460679037718 -2.13760356405e-05 0.000473146203416) 
(0.00102819960033 0.000152829376556 8.05702287056e-05 0.000491052422982 -2.40277847027e-05 0.000509895520649) 
(0.00106799158938 0.000184499553128 8.3965403551e-05 0.000522469256955 -2.7112621975e-05 0.000549740747538) 
(0.00112314469643 0.000218335963614 8.65227315352e-05 0.000553885811253 -3.03215244893e-05 0.000591888614888) 
(0.00119285839148 0.000253589532661 8.77487956359e-05 0.000584484469833 -3.3257811832e-05 0.000635655809361) 
(0.00127571341807 0.000289593129144 8.72854605448e-05 0.000613606682658 -3.55147375956e-05 0.000680377590092) 
(0.00137003177728 0.000325743727199 8.49874671986e-05 0.000640742600083 -3.67661187764e-05 0.000725409336111) 
(0.00147386316945 0.000361553422268 8.09406619141e-05 0.000665637871818 -3.68476042588e-05 0.000770291880744) 
(0.00158474828698 0.000396785073249 7.53920262164e-05 0.000688440753734 -3.58005418509e-05 0.00081499609661) 
(0.00169963739882 0.00043157544924 6.86147481988e-05 0.000709735329964 -3.38578868459e-05 0.000860038833272) 
(0.00181530133293 0.000466387431802 6.07945225944e-05 0.000730347979912 -3.13736187734e-05 0.000906275883752) 
(0.0019292285201 0.000501713642974 5.20298616031e-05 0.000750964716895 -2.87224877985e-05 0.000954371659805) 
(0.00204059938707 0.000537646491275 4.24537501254e-05 0.000771736873929 -2.62087450408e-05 0.00100419756045) 
(0.00215077490805 0.000573582284057 3.23684064348e-05 0.000792078130625 -2.40122058015e-05 0.00105452773698) 
(0.00226299669386 0.0006082767427 2.22564646731e-05 0.000810737867498 -2.21797096669e-05 0.00110324228769) 
(0.00238143479125 0.000640243359955 1.26332326833e-05 0.000826100838297 -2.0652500601e-05 0.00114794690481) 
(0.00251003052058 0.000668261857046 3.85087620655e-06 0.000836589343352 -1.93149621766e-05 0.00118668470462) 
(0.00265157835708 0.000691725301818 -3.99444219955e-06 0.000841051051926 -1.80487170911e-05 0.00121842110572) 
(0.00280726500705 0.000710700826531 -1.09901735782e-05 0.000839051985591 -1.67750673225e-05 0.00124317656111) 
(0.00297668361333 0.000725764269246 -1.72451678842e-05 0.000831002715812 -1.54722717514e-05 0.00126186979445) 
(0.00315823444318 0.000737751417744 -2.27659394658e-05 0.000818066756246 -1.41649097605e-05 0.00127600946099) 
(0.00334978174674 0.000747538667044 -2.74469277803e-05 0.000801856196948 -1.28963022781e-05 0.00128734652065) 
(0.00354937331343 0.000755899740693 -3.11560635645e-05 0.000784012445327 -1.17010390458e-05 0.00129756081382) 
(0.00375581175588 0.000763430350214 -3.38377613128e-05 0.000765820430352 -1.05908957595e-05 0.001308020959) 
(0.00396891089128 0.000770516726987 -3.5563116276e-05 0.000747982732685 -9.55708376152e-06 0.00131963924277) 
(0.00418941711213 0.000777320763527 -3.65076938597e-05 0.000730584803297 -8.57990593181e-06 0.00133280261591) 
(0.00441862843631 0.000783778693979 -3.68785801885e-05 0.000713222882807 -7.64009211621e-06 0.00134737909965) 
(0.00465793913986 0.000789581519465 -3.68396469432e-05 0.000695166814192 -6.72519539288e-06 0.00136271189576) 
(0.00490834415673 0.000794155906093 -3.64630108552e-05 0.000675513127138 -5.83264581346e-06 0.00137762234444) 
(0.00516995447569 0.000796660916136 -3.57351860947e-05 0.000653281485443 -4.97097838884e-06 0.00139041980763) 
(0.0054414332041 0.000796017202761 -3.46031374535e-05 0.000627491401918 -4.15772024325e-06 0.00139896027463) 
(0.00571921782265 0.000790980671155 -3.30194622948e-05 0.000597284915108 -3.42027909687e-06 0.00140080469268) 
(0.00599647292077 0.0007802653682 -3.0965164001e-05 0.000562124779278 -2.79467018724e-06 0.00139350025946) 
(0.00626193214446 0.000762681805395 -2.84348896772e-05 0.000522023624651 -2.32503406585e-06 0.00137491903298) 
(0.00649894339856 0.000737261463257 -2.53974760009e-05 0.000477712467831 -2.0618215819e-06 0.00134356838409) 
(0.00668520707113 0.000703338028171 -2.17622625473e-05 0.000430663757086 -2.06139139549e-06 0.00129873276298) 
(0.00679370837323 0.000660601548738 -1.74009102939e-05 0.00038286928978 -2.37564199837e-06 0.00124042280169) 
(0.00679520751822 0.00060916260212 -1.22449931695e-05 0.0003363992226 -3.03018105386e-06 0.00116915622277) 
(0.00666238487734 0.000549664613811 -6.4318809835e-06 0.000292868145581 -3.99379516755e-06 0.00108571155845) 
(0.00637524651976 0.000483432872057 -4.08949987303e-07 0.000253035602277 -5.15615539405e-06 0.000990999621365) 
(0.00592685854942 0.000412591556156 5.10864310776e-06 0.000216769404485 -6.33474133034e-06 0.000886172474411) 
(0.00532801338142 0.000340042382384 9.35714612239e-06 0.000183418141681 -7.31741146054e-06 0.000772979336506) 
(0.00460921250848 0.000269229416441 1.1820239762e-05 0.000152385024184 -7.9221218042e-06 0.000654239660577) 
(0.00381862710758 0.000203685742768 1.24263039447e-05 0.00012354784295 -8.04353357417e-06 0.000534151928544) 
(0.00301554247674 0.000146455055018 1.15310430404e-05 9.72984990458e-05 -7.66877985518e-06 0.000418129733961) 
(0.00226021028201 9.95533200776e-05 9.71952391752e-06 7.42615016845e-05 -6.86780616627e-06 0.00031202496523) 
(0.00160261193756 6.36520326128e-05 7.5698687546e-06 5.49482573846e-05 -5.77270524026e-06 0.000220925383415) 
(0.00107359145339 3.80963736305e-05 5.50480850421e-06 3.95554540785e-05 -4.55166772909e-06 0.000147993544917) 
(0.000992083461218 8.12568129718e-05 9.06176144134e-05 0.000436385627972 -1.92865313149e-05 0.000434089615415) 
(0.00099951878565 0.000100452251624 9.23851402802e-05 0.000456082737714 -2.0928860525e-05 0.000457575794796) 
(0.00101616756 0.000124136413707 9.42814104572e-05 0.000479094273559 -2.31719060432e-05 0.00048588979928) 
(0.00104452687144 0.000151785448112 9.60248597362e-05 0.000504549047812 -2.59515842123e-05 0.000518471124143) 
(0.00108601158362 0.000182622754483 9.72868743223e-05 0.000531541886113 -2.90768195233e-05 0.000554665778083) 
(0.00114088280849 0.00021577703777 9.77477918729e-05 0.000559260707103 -3.22458178649e-05 0.00059380617218) 
(0.00120856514221 0.000250386260729 9.71505004129e-05 0.000586990749492 -3.50939738315e-05 0.000635186729376) 
(0.00128807955918 0.00028564570137 9.53396468925e-05 0.000614070388317 -3.72633946231e-05 0.000678025371811) 
(0.00137827252616 0.000320855235518 9.22765121781e-05 0.000639908961833 -3.84779970812e-05 0.000721532067043) 
(0.00147770581051 0.000355522618127 8.80160772528e-05 0.000664113439958 -3.86056709014e-05 0.000765125631704) 
(0.0015843658139 0.000389513236342 8.26388852104e-05 0.000686652106913 -3.76869013151e-05 0.000808701262818) 
(0.00169555306561 0.000423142225105 7.61658106459e-05 0.000707911968009 -3.5917199236e-05 0.000852746029843) 
(0.00180826622056 0.000457066587321 6.85247735195e-05 0.00072854219715 -3.35885430534e-05 0.000898123378277) 
(0.00192007082856 0.000491928198907 5.96297257857e-05 0.000749112669487 -3.10125757129e-05 0.000945536603054) 
(0.00203006022826 0.000527886796822 4.95485828413e-05 0.000769748779966 -2.8453490112e-05 0.000994922320759) 
(0.00213936913877 0.000564318637927 3.86380420755e-05 0.00078993001054 -2.60878643738e-05 0.00104513320884) 
(0.00225093701737 0.000599893057336 2.75158154456e-05 0.000808536647626 -2.39939365352e-05 0.00109411985534) 
(0.00236864127462 0.000633005393907 1.68561461504e-05 0.000824102896469 -2.21640583485e-05 0.00113952680434) 
(0.00249621756834 0.000662319683468 7.14250444017e-06 0.000835169057802 -2.05339235692e-05 0.00117939017471) 
(0.00263638930864 0.000687138515806 -1.4552664894e-06 0.000840631161159 -1.90214520218e-05 0.00121262198522) 
(0.00279041872415 0.000707469042735 -9.01232386557e-06 0.000840016702959 -1.75631186743e-05 0.00123915034342) 
(0.00295809791463 0.000723848862338 -1.56699354387e-05 0.000833618161041 -1.6134142975e-05 0.00125977311783) 
(0.00313809787035 0.000737083527427 -2.14858410768e-05 0.000822430172353 -1.47459349761e-05 0.00127586105988) 
(0.0033285580995 0.00074801710636 -2.64009509435e-05 0.000807885272197 -1.34268298424e-05 0.00128902379058) 
(0.0035277429192 0.000757385571068 -3.0310417883e-05 0.000791472497072 -1.21998695313e-05 0.00130081122277) 
(0.003734575414 0.000765742035827 -3.31629517338e-05 0.000774374319454 -1.10701572738e-05 0.00131248439865) 
(0.00394888968092 0.000773428711447 -3.50170968024e-05 0.00075724361411 -1.00256952122e-05 0.001324876065) 
(0.0041713738514 0.000780565483116 -3.60290172137e-05 0.000740157812903 -9.04516073654e-06 0.00133832184556) 
(0.00440322231038 0.000787054056603 -3.63911862921e-05 0.000722730138658 -8.10787765167e-06 0.00135266382197) 
(0.00464570193758 0.000792566665292 -3.62658133266e-05 0.000704262970613 -7.19984623056e-06 0.00136724551202) 
(0.00489966449048 0.000796533046707 -3.57373484027e-05 0.000683901521456 -6.31701353857e-06 0.00138091611866) 
(0.00516505321757 0.000798142530259 -3.48141625285e-05 0.000660737560667 -5.46674539032e-06 0.00139204739513) 
(0.00544032873512 0.000796374523494 -3.34670936867e-05 0.00063389117434 -4.66560788673e-06 0.00139859788209) 
(0.00572168197105 0.000790072154973 -3.16679353034e-05 0.000602629882558 -3.94019700127e-06 0.00139827931387) 
(0.00600200434183 0.000778060388806 -2.9411424991e-05 0.000566545278428 -3.32589327941e-06 0.00138883223837) 
(0.00626976599125 0.000759269830294 -2.66995908707e-05 0.000525757237868 -2.86682357837e-06 0.00136834033928) 
(0.00650811333192 0.000732834997787 -2.34986833978e-05 0.000481063186067 -2.61459942808e-06 0.0013354956716) 
(0.00669465684946 0.00069814673049 -1.97006125975e-05 0.000433954716075 -2.62796390463e-06 0.00128969108442) 
(0.00680243365599 0.000654894084247 -1.5148452602e-05 0.000386394837234 -2.96125556475e-06 0.00123094320207) 
(0.00680239739258 0.000603147800136 -9.75433794657e-06 0.000340372246362 -3.64008845856e-06 0.00115969090254) 
(0.00666753062954 0.000543516578421 -3.67517339927e-06 0.000297361711622 -4.62809471659e-06 0.00107660337118) 
(0.00637819013966 0.000477333647625 2.56797371983e-06 0.000257938308101 -5.80376761262e-06 0.000982508401189) 
(0.00592776791193 0.000406771730097 8.15416595238e-06 0.000221790239961 -6.97023125877e-06 0.000878521842858) 
(0.0053272913191 0.000334776879896 1.223664584e-05 0.000188163920608 -7.90411309814e-06 0.000766377722724) 
(0.00460737292209 0.000264778081503 1.42916440019e-05 0.000156488254547 -8.42192194756e-06 0.000648854003612) 
(0.00381618056346 0.000200212573236 1.43272678339e-05 0.000126783606488 -8.42932371601e-06 0.0005300542047) 
(0.00301292151831 0.000143976742131 1.28278408134e-05 9.96318173988e-05 -7.93331701646e-06 0.000415258387081) 
(0.00225773683655 9.79466863139e-05 1.0495493894e-05 7.58125249957e-05 -7.02451312427e-06 0.000310192596722) 
(0.00160049185847 6.27103326113e-05 7.97081163651e-06 5.59110797788e-05 -5.84869387406e-06 0.000219870896259) 
(0.00107192134518 3.75991357105e-05 5.67869165244e-06 4.01220080333e-05 -4.57739362853e-06 0.000147450649871) 
(0.00100365277071 8.45555701284e-05 0.000115293879281 0.000469368448075 -2.12558167616e-05 0.000459561329167) 
(0.0010162187674 0.000102113842999 0.000115869517404 0.000484128235606 -2.30936070697e-05 0.000478396190805) 
(0.00103738909243 0.000124115643108 0.000116135928002 0.0005017506069 -2.54918480171e-05 0.000501738279779) 
(0.00106891520098 0.000150188595159 0.000115845885451 0.000521764368082 -2.83560766856e-05 0.000529417801145) 
(0.00111168444995 0.000179650162873 0.00011480573783 0.000543652777654 -3.14817397223e-05 0.000561115534152) 
(0.00116576044459 0.000211628024601 0.000112924804275 0.000566914826151 -3.45782125681e-05 0.000596370486898) 
(0.00123070409712 0.00024516773063 0.000110224275615 0.000591036858598 -3.73170139274e-05 0.000634536170681) 
(0.00130592986656 0.000279329477129 0.000106799909485 0.000615440297606 -3.93925687271e-05 0.000674771728134) 
(0.00139082748053 0.000313308304908 0.000102754257447 0.000639503154234 -4.05805164962e-05 0.000716165168203) 
(0.00148455234604 0.000346599135741 9.81198620925e-05 0.000662697718463 -4.0779422773e-05 0.0007580032325) 
(0.0015856565105 0.000379165479059 9.27939047937e-05 0.000684778410855 -4.00235440689e-05 0.000800073623626) 
(0.00169191454865 0.000411499556976 8.65152214106e-05 0.000705881711163 -3.84625834921e-05 0.00084279616823) 
(0.00180064716455 0.000444451628432 7.89270730395e-05 0.000726427817209 -3.63173046653e-05 0.000887014618549) 
(0.00190953772957 0.000478812378637 6.97448175183e-05 0.000746837697801 -3.38287958122e-05 0.000933465623251) 
(0.00201757199357 0.000514811550059 5.89711829315e-05 0.000767205734635 -3.12174422478e-05 0.000982170868263) 
(0.00212558818564 0.000551812566065 4.70261184817e-05 0.00078709826136 -2.8657052712e-05 0.00103209985107) 
(0.00223613091571 0.00058840712811 3.46741563563e-05 0.000805563281904 -2.6261194423e-05 0.00108131487111) 
(0.00235270020189 0.000622876737067 2.27597435522e-05 0.000821323406903 -2.40792895714e-05 0.00112752721408) 
(0.00247877131683 0.00065376484331 1.19075076722e-05 0.000833066152909 -2.21048808532e-05 0.00116877077354) 
(0.0026169810048 0.00068026845455 2.3693533087e-06 0.000839747954314 -2.02980772726e-05 0.00120388494072) 
(0.00276868908272 0.000702311815828 -5.91091794458e-06 0.000840849899711 -1.86148361793e-05 0.00123266757934) 
(0.00293393932829 0.000720367058774 -1.31024511054e-05 0.000836519685456 -1.70295274513e-05 0.00125574622111) 
(0.00311174539228 0.000735181698925 -1.93118389844e-05 0.000827542699604 -1.5540501228e-05 0.00127429994877) 
(0.00330059893475 0.000747542480898 -2.45258179918e-05 0.000815125998663 -1.41597447983e-05 0.00128974578914) 
(0.00349904793336 0.000758128469244 -2.86672376011e-05 0.000800563943363 -1.28968197442e-05 0.00130346098232) 
(0.0037061838882 0.00076743772281 -3.16898204685e-05 0.000784904871444 -1.1748486962e-05 0.0013165676204) 
(0.00392188774134 0.00077576135393 -3.36396509796e-05 0.000768733817417 -1.06985421385e-05 0.00132979863317) 
(0.0041467981615 0.000783172672128 -3.46523077416e-05 0.000752114872659 -9.72366157168e-06 0.00134342649665) 
(0.00438200155209 0.000789535040423 -3.49037228387e-05 0.000734682642805 -8.80162682738e-06 0.00135726205997) 
(0.00462861856685 0.000794500315369 -3.45532380511e-05 0.00071578431193 -7.91657449962e-06 0.00137065221091) 
(0.00488731905187 0.000797505836605 -3.36992927977e-05 0.000694632875816 -7.0621197503e-06 0.00138248957312) 
(0.00515781276331 0.000797786679047 -3.2378366364e-05 0.000670417527556 -6.24286306301e-06 0.00139124138902) 
(0.00543826237336 0.000794410631878 -3.05966376591e-05 0.000642388327125 -5.4721570663e-06 0.0013950220542) 
(0.00572449234522 0.0007863532087 -2.83623666606e-05 0.000609966029242 -4.7731589023e-06 0.00139176740336) 
(0.00600899292366 0.000772608586661 -2.57074929888e-05 0.00057288821603 -4.17816614132e-06 0.00137949856772) 
(0.00627985752411 0.000752291254071 -2.2669575935e-05 0.000531381672836 -3.72968040788e-06 0.00135659929908) 
(0.00651995609843 0.000724694288441 -1.92397926325e-05 0.000486292522596 -3.4801791605e-06 0.0013220169721) 
(0.00670678793247 0.0006892962692 -1.53107209292e-05 0.000439105610128 -3.49179936395e-06 0.00127528608832) 
(0.00681347799096 0.000645778779302 -1.06976069563e-05 0.000391733930508 -3.82314324048e-06 0.00121641335991) 
(0.00681125780427 0.000594129415966 -5.27516078594e-06 0.000346076369719 -4.50169009208e-06 0.00114569779431) 
(0.00667352809353 0.000534856110325 8.09963198862e-07 0.000303471282892 -5.48718871562e-06 0.00106361262971) 
(0.00638112298941 0.000469232229735 6.99361426883e-06 0.000264317356985 -6.64750337365e-06 0.00097081656865) 
(0.00592787729413 0.000399426575496 1.23724783027e-05 0.000228130184253 -7.77159717941e-06 0.000868323927012) 
(0.00532514391962 0.000328398918754 1.60315710477e-05 0.000194059460108 -8.62528098068e-06 0.000757815812076) 
(0.00460370067299 0.000259551387177 1.7448854463e-05 0.000161566177223 -9.02465106725e-06 0.000642013354944) 
(0.00381172746596 0.000196225556875 1.67186753452e-05 0.000130821457334 -8.88805124232e-06 0.00052492197208) 
(0.0030083339647 0.000141177065681 1.44580549743e-05 0.000102604978845 -8.24431389258e-06 0.000411689458936) 
(0.00225350375128 9.6152072744e-05 1.14865813675e-05 7.78567678149e-05 -7.20643528852e-06 0.000307919087902) 
(0.00159692234327 6.16667979106e-05 8.50350602267e-06 5.72385513935e-05 -5.9348153146e-06 0.000218557353158) 
(0.00106914747388 3.70513136528e-05 5.92922882025e-06 4.09439675945e-05 -4.60417111701e-06 0.00014676707) 
(0.00102799055551 8.8598428431e-05 0.000143704242401 0.000505932090555 -2.37897813765e-05 0.000487997719232) 
(0.0010444822692 0.00010413882887 0.000143293483693 0.000516044013894 -2.57498473688e-05 0.000502181762962) 
(0.00106903130476 0.000123975185854 0.000142113525437 0.000528389887078 -2.82293951305e-05 0.000520354372953) 
(0.00110273179985 0.000147916684971 0.000139910816755 0.000542835358137 -3.11121688773e-05 0.000542705265224) 
(0.00114595393303 0.000175422546221 0.00013659640675 0.000559246064147 -3.41878717683e-05 0.000569272894463) 
(0.00119849258353 0.000205673009228 0.000132299976075 0.000577487987843 -3.71822121888e-05 0.000599875996856) 
(0.0012599277778 0.000237667696877 0.000127335737296 0.000597346183063 -3.98043255018e-05 0.000634026416641) 
(0.0013299598739 0.000270361978974 0.000122079718561 0.000618429281276 -4.17984496236e-05 0.000670916890038) 
(0.00140847164554 0.000302856238792 0.000116806073545 0.000640161722549 -4.2985982094e-05 0.000709571401582) 
(0.00149523876361 0.000334622855431 0.000111547049804 0.000661915031366 -4.32881965811e-05 0.0007491561801) 
(0.00158947022396 0.000365696510694 0.000106029368745 0.000683221257192 -4.27252335527e-05 0.000789322302636) 
(0.00168953615192 0.000396708199554 9.97182211203e-05 0.000703930684174 -4.13952553253e-05 0.000830371772079) 
(0.0017931888442 0.000428662314172 9.19803422165e-05 0.000724192319452 -3.944542066e-05 0.000873081831903) 
(0.00189829122252 0.000462472336015 8.23397230632e-05 0.000744247844073 -3.70469651328e-05 0.000918201804606) 
(0.00200371815587 0.000498436251617 7.07357048524e-05 0.000764152623637 -3.43787908088e-05 0.000965854456064) 
(0.0021099500977 0.000535928433881 5.76443048845e-05 0.000783574730234 -3.16140938673e-05 0.00101517301004) 
(0.00221904555787 0.000573501553946 4.39621042087e-05 0.000801759126469 -2.89027893536e-05 0.00106438960759) 
(0.00233403952021 0.000609359564762 3.06876532575e-05 0.00081764856153 -2.63515107721e-05 0.00111132883403) 
(0.00245808753867 0.000641944720915 1.85766730707e-05 0.000830102068575 -2.4012004878e-05 0.00115404175858) 
(0.00259371869461 0.000670344546739 7.96348707495e-06 0.000838147749141 -2.1888039924e-05 0.00119128321318) 
(0.00274240619504 0.00069437525369 -1.17858371054e-06 0.00084121665371 -1.99576171241e-05 0.00122268253425) 
(0.00290449187613 0.000714404141879 -9.02965936947e-06 0.000839293397526 -1.81970377725e-05 0.00124864100033) 
(0.00307939968018 0.000731076227199 -1.57272309116e-05 0.000832923640421 -1.65936014299e-05 0.00127008253584) 
(0.00326605054859 0.000745080295287 -2.12896226251e-05 0.000823051197042 -1.51437506661e-05 0.0012881703184) 
(0.00346334905749 0.000757009157891 -2.56599558688e-05 0.000810737618565 -1.38434456544e-05 0.00130405868343) 
(0.003670613027 0.000767290759248 -2.8796608257e-05 0.000796865481955 -1.26807187827e-05 0.00131869626827) 
(0.003887807479 0.000776162453182 -3.07374457858e-05 0.000781931743544 -1.16350318742e-05 0.00133269760984) 
(0.00411553817871 0.000783655423211 -3.16027226081e-05 0.000765980049387 -1.06812365287e-05 0.00134626595732) 
(0.00435478115509 0.000789601577519 -3.15557456548e-05 0.000748671059199 -9.7956818818e-06 0.00135918429143) 
(0.00460648697366 0.000793641245959 -3.07557093322e-05 0.000729411161646 -8.96018539181e-06 0.00137081673223) 
(0.00487109306357 0.000795233976017 -2.93193625762e-05 0.000707502287212 -8.16454374897e-06 0.00138012785488) 
(0.00514799375095 0.000793686161033 -2.732048774e-05 0.000682255748183 -7.40782538801e-06 0.00138572784798) 
(0.00543494123241 0.000788193923796 -2.48166226075e-05 0.000653075422759 -6.69639403504e-06 0.00138595448631) 
(0.00572726104725 0.000777920027719 -2.18765469758e-05 0.000619551148198 -6.04575213846e-06 0.00137905181536) 
(0.00601691029727 0.000762093509476 -1.86012087009e-05 0.00058156615441 -5.48142830327e-06 0.00136341321538) 
(0.00629149918757 0.00074007982947 -1.5100609111e-05 0.000539432953774 -5.04211855982e-06 0.00133780755761) 
(0.00653356204728 0.000711384409337 -1.14260490573e-05 0.000494008520739 -4.78103262282e-06 0.00130149798986) 
(0.0067204856013 0.000675597115306 -7.49367970847e-06 0.000446730940588 -4.76536471718e-06 0.00125417966729) 
(0.00682553702939 0.00063237281285 -3.0912576109e-06 0.000399439273026 -5.06060926023e-06 0.00119581722451) 
(0.00682032353091 0.000581553117283 1.97014833397e-06 0.00035394658473 -5.6987308592e-06 0.00112649040091) 
(0.0066787884484 0.000523452047532 7.60141220365e-06 0.000311485043375 -6.63768704553e-06 0.00104636773321) 
(0.00638237693646 0.000459182531237 1.32508425906e-05 0.00027231990308 -7.73641932607e-06 0.000955826669957) 
(0.00592549223639 0.000390825151779 1.79822527918e-05 0.000235832712185 -8.7715287653e-06 0.000855689015391) 
(0.00531991370344 0.000321301912491 2.08455803252e-05 0.000201098393813 -9.50015026748e-06 0.000747528372989) 
(0.00459664586068 0.000253974818369 2.13335337313e-05 0.000167612216152 -9.74018160411e-06 0.000633993424985) 
(0.00380389369205 0.000192108860374 1.96222941416e-05 0.000135683684068 -9.42440190338e-06 0.000519006028458) 
(0.00300063339161 0.000138357060372 1.64466620607e-05 0.000106273131655 -8.60444145153e-06 0.000407611924127) 
(0.00224661619703 9.43776015729e-05 1.27262574797e-05 8.04684812429e-05 -7.41589297731e-06 0.000305323704109) 
(0.00159125221554 6.06494462771e-05 9.20482874605e-06 5.90051030082e-05 -6.03342240128e-06 0.000217046342959) 
(0.00106482825657 3.65233364753e-05 6.28947185102e-06 4.20819739881e-05 -4.63412638429e-06 0.000145966496812) 
(0.00106735253742 9.29179063989e-05 0.000175062141981 0.000544997150862 -2.67024469222e-05 0.000518104687127) 
(0.00108605905645 0.000106219114435 0.000173932319721 0.000551084543006 -2.86966228211e-05 0.000528011276621) 
(0.00111230280168 0.000123564964824 0.00017159142665 0.00055864916374 -3.1171875478e-05 0.00054122635677) 
(0.00114667992262 0.000144954895979 0.000167738158199 0.000567793021554 -3.40025326926e-05 0.000558223505237) 
(0.00118912673474 0.000170023300833 0.000162343984053 0.0005787122981 -3.6983079314e-05 0.000579375902264) 
(0.0012391499942 0.000198056850086 0.000155723245538 0.000591652914153 -3.98610382673e-05 0.000604822354056) 
(0.00129624465383 0.000228071873397 0.000148464126803 0.000606767380211 -4.23815753009e-05 0.000634322565439) 
(0.0013602598062 0.000258974074607 0.000141223021947 0.00062394817353 -4.43300887866e-05 0.000667208917728) 
(0.00143146124224 0.00028979977235 0.000134463829238 0.000642758159689 -4.55604045639e-05 0.000702526587958) 
(0.00151020391025 0.00031999242454 0.000128252428833 0.000662531931475 -4.60028479608e-05 0.000739359229483) 
(0.00159639168862 0.000349612438557 0.000122191565495 0.00068260639235 -4.56542257994e-05 0.000777206062465) 
(0.00168908531751 0.00037935709611 0.000115525280469 0.0007025416964 -4.45595210376e-05 0.000816198751632) 
(0.00178657944672 0.000410309627446 0.000107391118138 0.000722194432934 -4.27981339015e-05 0.000856988165843) 
(0.00188699883346 0.000443456262682 9.71505382937e-05 0.000741604500238 -4.04813803522e-05 0.000900300313479) 
(0.00198913230852 0.000479157822201 8.46802915144e-05 0.000760776591661 -3.77557021375e-05 0.000946365682577) 
(0.00209306634365 0.000516840230747 7.04850374783e-05 0.000779484251706 -3.47977236757e-05 0.000994529382069) 
(0.00220029747228 0.000555086400879 5.55480653026e-05 0.000797184778133 -3.17916323446e-05 0.00104326361024) 
(0.0023133117966 0.000592093688393 4.09752872924e-05 0.000813060432209 -2.88950476333e-05 0.00109057212695) 
(0.00243487979208 0.000626251657488 2.76209610574e-05 0.000826158371961 -2.62111759174e-05 0.00113456342592) 
(0.00256738959032 0.000656551457324 1.5892287498e-05 0.000835588573924 -2.37832880211e-05 0.0011739125514) 
(0.00271242853349 0.000682678857123 5.80576320922e-06 0.000840734662534 -2.16109904096e-05 0.00120805108208) 
(0.00287066813668 0.000704847520539 -2.79976463315e-06 0.000841412313771 -1.96749209018e-05 0.00123709902946) 
(0.00304199872719 0.000723539150181 -1.00571050135e-05 0.000837912532532 -1.79548013157e-05 0.00126165657083) 
(0.00322584168366 0.000739287161517 -1.59857145131e-05 0.000830892686908 -1.64346284849e-05 0.00128256435642) 
(0.00342153140574 0.000752557397944 -2.05316244294e-05 0.000821153428685 -1.50989912262e-05 0.00130069781842) 
(0.0036286743089 0.000763690291223 -2.36560562236e-05 0.000809384294175 -1.39287702186e-05 0.00131679683855) 
(0.0038473609444 0.000772873779258 -2.53987906264e-05 0.000795974117825 -1.29004341429e-05 0.00133134463635) 
(0.00407818080811 0.000780115380755 -2.58800412064e-05 0.000780937580933 -1.19881482394e-05 0.00134448077354) 
(0.00432199118996 0.0007852395076 -2.52646416761e-05 0.000763965103104 -1.11674291878e-05 0.00135597918087) 
(0.00457953837967 0.00078790022367 -2.37223052628e-05 0.000744535827347 -1.04173229406e-05 0.00136525147639) 
(0.00485096577975 0.000787607547939 -2.13976399942e-05 0.000722058996721 -9.72182014486e-06 0.00137137767613) 
(0.00513526328588 0.000783774530101 -1.84142828898e-05 0.000695985727129 -9.07069913499e-06 0.00137316913477) 
(0.00542966131029 0.000775770697392 -1.4899677593e-05 0.000665884949423 -8.45825319554e-06 0.00136925845827) 
(0.00572886719785 0.000762999858626 -1.10090868176e-05 0.000631513840058 -7.88674486808e-06 0.00135827552738) 
(0.0060241984083 0.000744982523859 -6.94456828305e-06 0.000592881417206 -7.37016761347e-06 0.00133905868603) 
(0.00630271001624 0.000721385121911 -2.923443534e-06 0.000550346915496 -6.94067911069e-06 0.0013108171727) 
(0.00654657765019 0.000691957221591 9.11559489632e-07 0.000504727553236 -6.65204935312e-06 0.0012731565155) 
(0.00673310235966 0.000656402495542 4.60190558411e-06 0.000457369107198 -6.57842436125e-06 0.00122592345967) 
(0.00683576164141 0.000614314728008 8.39016327853e-06 0.00041001571393 -6.79503645903e-06 0.00116899335317) 
(0.0068266354169 0.000565317812232 1.25585214939e-05 0.000364410607445 -7.341083838e-06 0.00110214484959) 
(0.00668032602829 0.000509431266983 1.71294047531e-05 0.000321730246898 -8.17509084852e-06 0.00102513520396) 
(0.00637901743326 0.00044749567561 2.16312967203e-05 0.000282174065222 -9.1495567504e-06 0.000937946039886) 
(0.00591780857608 0.000381403885639 2.51600149461e-05 0.00024504976534 -1.00319773742e-05 0.000841106392597) 
(0.00530901216509 0.000313976505705 2.67756586108e-05 0.000209389890307 -1.05748147258e-05 0.000736018715128) 
(0.0045839211636 0.000248522229916 2.60010596613e-05 0.000174721864085 -1.06015820516e-05 0.000625245593253) 
(0.00379076315859 0.000188264605242 2.30811136974e-05 0.000141466318672 -1.00619525045e-05 0.000512658073959) 
(0.00298831126272 0.00013581920783 1.88386681759e-05 0.000110731181742 -9.03095321797e-06 0.000403259563511) 
(0.00223596521951 9.28256847405e-05 1.42626227669e-05 8.37312612602e-05 -7.66595547165e-06 0.000302533162468) 
(0.00158272317736 5.97789475538e-05 1.0120223028e-05 6.12737483188e-05 -6.15448576696e-06 0.000215386580483) 
(0.00105848142315 3.60793468056e-05 6.79630679436e-06 4.35756619223e-05 -4.67458707356e-06 0.000145052662714) 
(0.00112252606306 9.68625754552e-05 0.000208580105517 0.000585742553378 -2.96775491896e-05 0.00054862436979) 
(0.00114156444576 0.000107941678376 0.000206963256792 0.000588592471545 -3.16288605563e-05 0.000554917297737) 
(0.0011675673216 0.000122739132463 0.000203742172521 0.000592112816483 -3.40292538517e-05 0.000563758063992) 
(0.00120082199796 0.000141424644968 0.000198540216195 0.000596529727908 -3.67565980672e-05 0.000575799354811) 
(0.0012409724494 0.000163811733061 0.000191346405725 0.00060228387491 -3.96205800912e-05 0.000591678967072) 
(0.00128728707464 0.000189328121565 0.000182608202474 0.00060996416158 -4.23945548687e-05 0.000611844461275) 
(0.00133912513398 0.00021706728813 0.000173138755236 0.000620108520483 -4.48549057387e-05 0.000636353635599) 
(0.00139636276905 0.00024595333603 0.000163842329153 0.000632954933627 -4.68149502585e-05 0.000664769338261) 
(0.00145951010436 0.000275006870797 0.000155370292969 0.000648288218379 -4.81430660662e-05 0.000696252536261) 
(0.00152940073015 0.000303646265131 0.000147858036946 0.000665487997582 -4.87624534903e-05 0.000729866410674) 
(0.00160660507301 0.00033190785673 0.00014085489328 0.000683758480013 -4.86384816563e-05 0.000764968243416) 
(0.00169091991846 0.000360465780271 0.000133472012149 0.000702404327269 -4.77663320677e-05 0.00080148232565) 
(0.00178127344422 0.000390385653024 0.00012469783908 0.000720998324198 -4.61710012714e-05 0.000839875024468) 
(0.00187614600136 0.000422660327098 0.000113778378126 0.000739370560827 -4.39212943433e-05 0.000880803310227) 