/*--------------------------------*- C++ -*----------------------------------*\
| =========                 |                                                 |
| \\      /  F ield         | OpenFOAM: The Open Source CFD Toolbox           |
|  \\    /   O peration     | Version:  3.0.1                                 |
|   \\  /    A nd           | Web:      www.OpenFOAM.org                      |
|    \\/     M anipulation  |                                                 |
\*---------------------------------------------------------------------------*/
FoamFile
{
    version     2.0;
    format      ascii;
    class       volSymmTensorField;
    location    "50000";
    object      R;
}
// * * * * * * * * * * * * * * * * * * * * * * * * * * * * * * * * * * * * * //

dimensions      [0 2 -2 0 0 0 0];

internalField   nonuniform List<symmTensor> 
2500
(
(0.000932466230374 5.91547626778e-05 6.0585065865e-05 0.000440514378616 -1.85133708303e-05 0.000437643987005) 
(0.000981186838084 8.20979179813e-05 6.10552990203e-05 0.000436763320213 -2.00720611312e-05 0.000446740295884) 
(0.00103097469812 0.000110890570085 6.2029453482e-05 0.000441549148709 -2.11961714318e-05 0.00046464638226) 
(0.0010785159224 0.000144681810172 6.35461329214e-05 0.00045766740895 -2.17058222396e-05 0.000492905601338) 
(0.00112328661968 0.000181978431154 6.5507573364e-05 0.000485608389116 -2.15997268341e-05 0.000531250829499) 
(0.00116844803424 0.000220879679464 6.76754682859e-05 0.000523031195514 -2.10592460953e-05 0.000577392065092) 
(0.00122022342709 0.000259354091957 6.97114623381e-05 0.000565252531326 -2.03795747019e-05 0.000627485721448) 
(0.00128596048161 0.000295534710075 7.12536667193e-05 0.000606572266097 -1.9864526944e-05 0.000677139153999) 
(0.00137156359204 0.000328058874489 7.20122102578e-05 0.000641956081171 -1.97345832359e-05 0.000722647837646) 
(0.00147911865911 0.000356459708718 7.18610656989e-05 0.000668540142525 -2.00818362452e-05 0.00076212494985) 
(0.00160552739278 0.000381483695453 7.08941538929e-05 0.000686490698092 -2.08754057122e-05 0.000796162372331) 
(0.00174288334297 0.000405077612024 6.94101622791e-05 0.00069886099267 -2.19977223462e-05 0.000827665081903) 
(0.00188089278504 0.000429835453321 6.78101703707e-05 0.000710334004544 -2.32876251527e-05 0.00086069752171) 
(0.00201067502934 0.000457995518775 6.64383244874e-05 0.000725221521503 -2.45762891509e-05 0.000898668017244) 
(0.00212823589595 0.000490445762663 6.54403566595e-05 0.000745599815378 -2.5713427016e-05 0.000942698000399) 
(0.00223577584802 0.000526295235679 6.47155007931e-05 0.000770526565438 -2.65871271292e-05 0.000991078330869) 
(0.00234015186565 0.000563247346105 6.39849552502e-05 0.000796708694888 -2.71344154939e-05 0.00104011628182) 
(0.00244957559257 0.000598515407115 6.2928585087e-05 0.000820103466587 -2.73444465807e-05 0.0010858034752) 
(0.00257050563496 0.000629744859248 6.13106682429e-05 0.000837483440989 -2.72504285945e-05 0.0011253154926) 
(0.00270616771927 0.00065553905515 5.90398196676e-05 0.00084723728835 -2.69125510509e-05 0.00115764550711) 
(0.00285682832869 0.000675523498193 5.61592007249e-05 0.000849316788172 -2.63983101091e-05 0.00118334843689) 
(0.00302099938648 0.000690128035793 5.27984602849e-05 0.000844707549532 -2.57658018656e-05 0.00120384918758) 
(0.00319665195052 0.000700296934348 4.91220632299e-05 0.000834859578272 -2.5054639691e-05 0.00122079913162) 
(0.00338198004865 0.00070723406906 4.52922539786e-05 0.00082129723894 -2.42855130368e-05 0.00123570717674) 
(0.00357571635087 0.000712198749998 4.14486408057e-05 0.000805413659478 -2.34656213354e-05 0.00124981656222) 
(0.00377719054508 0.000716341100541 3.76998066032e-05 0.00078836704593 -2.25957532231e-05 0.00126409555422) 
(0.00398629404142 0.000720568030037 3.41214018693e-05 0.000771007631451 -2.16756477976e-05 0.00127923112328) 
(0.00420344398872 0.000725441563184 3.07583100221e-05 0.000753788295095 -2.0707084153e-05 0.00129557053129) 
(0.00442943163461 0.000731132162945 2.76305180661e-05 0.00073672595597 -1.96935487658e-05 0.00131306583513) 
(0.00466541895924 0.000737364786833 2.47370247097e-05 0.000719262184994 -1.86400005851e-05 0.00133111321203) 
(0.00491280440575 0.000743385755278 2.20620941441e-05 0.000700180730049 -1.75517457743e-05 0.00134842508995) 
(0.00517298874756 0.00074794891308 1.95813074517e-05 0.00067756054656 -1.64339025247e-05 0.001362923397) 
(0.00544689333919 0.000749321700318 1.72670630312e-05 0.000648843555816 -1.52912215835e-05 0.00137171284611) 
(0.00573386833529 0.00074540259473 1.50939864833e-05 0.000611208226619 -1.41279137609e-05 0.00137129808717) 
(0.00602971274145 0.000734060353334 1.30439880731e-05 0.000562408486307 -1.29473111812e-05 0.00135817195929) 
(0.00632407369935 0.000713658810237 1.11104039968e-05 0.000501925412477 -1.1751558988e-05 0.0013297204529) 
(0.00659790740343 0.000683710303904 9.30013002979e-06 0.000432103997966 -1.0541922591e-05 0.00128522228018) 
(0.00682235122976 0.000645329415636 7.63229025003e-06 0.000358633466113 -9.3204180691e-06 0.00122646792255) 
(0.0069605395309 0.000601114848359 6.13279208288e-06 0.000289703735197 -8.0929339028e-06 0.00115746037393) 
(0.006973021446 0.000554265601232 4.82572183583e-06 0.000233721685507 -6.87291702637e-06 0.00108303472038) 
(0.00682592010438 0.000507194914056 3.72441300278e-06 0.000196337742194 -5.68372270107e-06 0.00100688583268) 
(0.00649949030233 0.00046038189301 2.82586966907e-06 0.000178174147255 -4.55762137829e-06 0.000930004018606) 
(0.00599427917092 0.000412279684644 2.11109016214e-06 0.000174562644483 -3.53068782885e-06 0.00085050845672) 
(0.00533303422207 0.000360551568429 1.55102384961e-06 0.000177584121595 -2.63492329152e-06 0.000765141996206) 
(0.00455820410953 0.000304002339429 1.11499808882e-06 0.000179344351006 -1.8907000823e-06 0.000671662957538) 
(0.003726112067 0.000243992796053 7.77404442803e-07 0.00017471010937 -1.30269445492e-06 0.00057077410583) 
(0.00289900511756 0.000184400024601 5.1997868761e-07 0.000162249424444 -8.60685621086e-07 0.000466541126268) 
(0.00213583016929 0.000130158023268 3.2997412088e-07 0.000143421914041 -5.44141302032e-07 0.000365225317651) 
(0.00148288903897 8.53213565742e-05 1.9674814371e-07 0.000121048654223 -3.28034662896e-07 0.000273324485983) 
(0.000966551699394 5.17592182895e-05 1.09381551138e-07 9.80703606895e-05 -1.87604530683e-07 0.000195812127622) 
(0.000981187129155 6.01941924582e-05 8.23504790246e-05 0.000449364450888 -2.05508879527e-05 0.000431959625103) 
(0.0010243895356 8.243879528e-05 8.22296321033e-05 0.000446538444175 -2.25723855227e-05 0.000442187245819) 
(0.00106883097518 0.000110262201041 8.25767320438e-05 0.000451483288396 -2.42035106763e-05 0.000460764172651) 
(0.00111174764872 0.000142862931253 8.35124877987e-05 0.000466715904615 -2.52240934789e-05 0.000489005676884) 
(0.00115292463575 0.000178846889361 8.50157197455e-05 0.000492666177367 -2.55948482693e-05 0.000526553841444) 
(0.0011955089042 0.00021643376154 8.68903217955e-05 0.000527185619507 -2.54722804831e-05 0.000571190692444) 
(0.00124543937837 0.000253701750114 8.87876812048e-05 0.000565978709415 -2.51458106383e-05 0.000619274302952) 
(0.00130965365235 0.000288862576643 9.0286635544e-05 0.000603811240547 -2.49311614324e-05 0.000666675159304) 
(0.00139367952021 0.000320597909893 9.10150697857e-05 0.000636068545456 -2.5071083817e-05 0.000709943182747) 
(0.0014993744247 0.00034845535422 9.07797613572e-05 0.000660170384854 -2.56812045851e-05 0.000747387367022) 
(0.00162360390741 0.000373167266159 8.96539169509e-05 0.00067639377784 -2.67485528323e-05 0.000779714983931) 
(0.0017585876313 0.000396635195392 8.79696101774e-05 0.000687746873201 -2.81646133038e-05 0.000809873553584) 
(0.00189422510671 0.000421382857655 8.61938969487e-05 0.000698773613192 -2.97678225683e-05 0.000841931829056) 
(0.00202176877891 0.000449578258043 8.47301533186e-05 0.00071363850634 -3.13800135859e-05 0.000879312350667) 
(0.00213720200411 0.000482075177002 8.37414610605e-05 0.000734335105171 -3.28338841612e-05 0.00092319406375) 
(0.00224254408481 0.000518008274585 8.30904792146e-05 0.000759926984925 -3.3995640447e-05 0.00097196124333) 
(0.00234441288495 0.000555158256018 8.24229337264e-05 0.000787179715372 -3.47799598926e-05 0.00102200091015) 
(0.00245086108412 0.000590831907796 8.13345749411e-05 0.000812096702265 -3.51584341533e-05 0.00106931318904) 
(0.00256835911483 0.000622743761086 7.95248898868e-05 0.000831432982713 -3.51556042652e-05 0.0011109847033) 
(0.00270031420157 0.000649516803579 7.68707798947e-05 0.000843485536417 -3.48328082646e-05 0.00114584271703) 
(0.00284727454482 0.00067074273386 7.3415701367e-05 0.000848063443792 -3.42665288715e-05 0.00117424778191) 
(0.00300805075703 0.000686774474335 6.93120124965e-05 0.000845991662349 -3.35277355997e-05 0.00119744677412) 
(0.00318087309326 0.000698451586118 6.47582804354e-05 0.000838565238127 -3.26688739567e-05 0.0012169507712) 
(0.00336413229808 0.000706861853148 5.99540010419e-05 0.00082716987952 -3.17209041296e-05 0.00123416498467) 
(0.00355669126543 0.000713153739602 5.50744018967e-05 0.000813080451033 -3.06979694693e-05 0.00125025492258) 
(0.00375794550456 0.00071838669437 5.02597711423e-05 0.000797360580154 -2.96049293336e-05 0.0012661280474) 
(0.00396779230687 0.00072340710683 4.56124823049e-05 0.000780793086748 -2.84436382269e-05 0.00128242384116) 
(0.00418660303404 0.000728749718138 4.11988922766e-05 0.000763793466915 -2.72168287457e-05 0.00129945513286) 
(0.00441509971012 0.000734582479347 3.70548858151e-05 0.000746362695336 -2.59283162798e-05 0.00131714635527) 
(0.00465436709201 0.000740642576247 3.31897902655e-05 0.000727946089134 -2.4583052883e-05 0.00133487231937) 
(0.00490573320264 0.000746194299647 2.95930255822e-05 0.000707346861962 -2.31862394149e-05 0.00135132919678) 
(0.00517051962289 0.000750013160991 2.62412470338e-05 0.000682688964242 -2.17429647707e-05 0.00136443894439) 
(0.00544950805869 0.000750401370675 2.31054313602e-05 0.000651510492493 -2.02581985614e-05 0.00137134959746) 
(0.00574176633571 0.000745323393292 2.01582227432e-05 0.000611175369047 -1.87367079245e-05 0.001368692513) 
(0.00604261100075 0.00073275898109 1.73808483059e-05 0.000559733438327 -1.7182723836e-05 0.00135319841312) 
(0.00634102410821 0.000711224470628 1.47685397631e-05 0.00049705152993 -1.55996500435e-05 0.00132259350484) 
(0.00661725477013 0.000680395120284 1.23329823507e-05 0.000425864962213 -1.39905675594e-05 0.00127653106282) 
(0.00684192826057 0.000641507701956 1.01000965263e-05 0.000352126141596 -1.23603975132e-05 0.00121709612647) 
(0.00697809458466 0.00059719603624 8.10268785245e-06 0.000284039857762 -1.07198446347e-05 0.00114839331614) 
(0.00698674532825 0.000550594593 6.36950462122e-06 0.000229739257759 -9.0898337379e-06 0.00107511608098) 
(0.00683486485908 0.000503984413533 4.91437193968e-06 0.000194389530169 -7.50398280632e-06 0.00100062083729) 
(0.0065037098927 0.000457703312252 3.72987006912e-06 0.000178084356301 -6.00666386654e-06 0.000925487798518) 
(0.00599465097257 0.000410104787077 2.78847544731e-06 0.000175764994666 -4.64589376801e-06 0.000847497215945) 
(0.00533086475826 0.000358811525291 2.05060125508e-06 0.000179370001586 -3.46301490144e-06 0.000763217637544) 
(0.00455480151628 0.00030263090494 1.47546534771e-06 0.000181106431174 -2.48321410735e-06 0.000670407308859) 
(0.00372248647201 0.000242940381558 1.02949158665e-06 0.000176085969163 -1.7108277811e-06 0.000569881990291) 
(0.00289576338689 0.000183626790147 6.88953076749e-07 0.000163134314119 -1.13095600404e-06 0.00046584751368) 
(0.00213322873357 0.000129622445607 4.37347210219e-07 0.000143887244778 -7.15764037302e-07 0.000364668866227) 
(0.00148095619713 8.49755586442e-05 2.6081530314e-07 0.000121234282773 -4.32090252206e-07 0.000272891190963) 
(0.000965202237874 5.1552537662e-05 1.45009958221e-07 9.81052906777e-05 -2.47480534878e-07 0.000195493777446) 
(0.00103197966659 6.12602358639e-05 0.000108432894025 0.000466784580593 -2.24027392679e-05 0.000433762737902) 
(0.00106984531544 8.27150198328e-05 0.000107632942869 0.000464384938611 -2.49988151785e-05 0.000444439743146) 
(0.00110964672346 0.000109377510621 0.000107173189144 0.00046855438635 -2.72886052252e-05 0.000462589911589) 
(0.00114920176649 0.00014048122644 0.00010724904584 0.000481504145307 -2.89999269492e-05 0.000489298302703) 
(0.001188458451 0.000174742495435 0.000107934450236 0.000503689856382 -3.00348028542e-05 0.000524214476986) 
(0.00123024700325 0.000210539737321 0.00010911819995 0.000533344602957 -3.05009522919e-05 0.000565375811005) 
(0.00127985494211 0.000246116750195 0.000110495891053 0.000566800384305 -3.06621968365e-05 0.000609560332634) 
(0.00134349803292 0.000279821612243 0.000111636103879 0.000599508264458 -3.08361361789e-05 0.000653092147536) 
(0.00142616594612 0.000310423818405 0.000112114424012 0.000627413191686 -3.1289332304e-05 0.000692889009776) 
(0.0015295134492 0.00033750379975 0.000111676710574 0.00064825195811 -3.21718560969e-05 0.000727472043785) 
(0.00165055959734 0.000361769371181 0.000110362268537 0.000662346906101 -3.35045044762e-05 0.00075759387207) 
(0.00178193518187 0.00038504257518 0.000108512733941 0.000672531262465 -3.52041207998e-05 0.000786122195569) 
(0.0019140199923 0.000409732285936 0.00010663570374 0.00068306561218 -3.71221235815e-05 0.000817002416663) 
(0.00203839601919 0.000437900380386 0.000105173328509 0.000697859453081 -3.90793734134e-05 0.000853584986751) 
(0.00215107071678 0.000470355758462 0.000104293645953 0.000718787021958 -4.08938990512e-05 0.000897090658634) 
(0.00225378096102 0.00050627796566 0.0001038178062 0.000744955345737 -4.24064452524e-05 0.000946049933127) 
(0.00235272077054 0.000543564724403 0.000103315096005 0.00077327056467 -4.35013750497e-05 0.000997017720474) 
(0.00245560803703 0.000579658604647 0.000102295830146 0.000799862929099 -4.41228140433e-05 0.00104607985674) 
(0.00256882954097 0.000612372275529 0.00010039026344 0.000821512830547 -4.4277534133e-05 0.00109026587176) 
(0.00269598011542 0.000640356820818 9.74358185879e-05 0.000836418244098 -4.4021728908e-05 0.00112821554031) 
(0.0028379731583 0.000663159211829 9.34670429548e-05 0.000844198314099 -4.34380892221e-05 0.00116003508938) 
(0.00299403606663 0.000681030516238 8.86506979721e-05 0.000845450296958 -4.26107897153e-05 0.00118671887127) 
(0.00316277528549 0.000694672354304 8.32136916494e-05 0.00084124498269 -4.16074904371e-05 0.00120956777247) 
(0.00334287650344 0.000705019581238 7.73901899268e-05 0.00083276742117 -4.04726587088e-05 0.00122982679794) 
(0.00353340939228 0.000713073346997 7.13915586261e-05 0.000821122342465 -3.92305127844e-05 0.00124854112429) 
(0.00373389387707 0.000719769876488 6.53929376328e-05 0.000807236819323 -3.7892424115e-05 0.00126652568365) 
(0.00394427787 0.000725869425986 5.9528596216e-05 0.000791793563483 -3.64638843273e-05 0.00128434855829) 
(0.00416491855552 0.000731862667856 5.38928853671e-05 0.000775147978971 -3.49491630098e-05 0.00130227090066) 
(0.00439648754965 0.000737906884444 4.85445541809e-05 0.000757272422698 -3.33522686843e-05 0.00132017807501) 
(0.00463999041655 0.000743751834203 4.35101244848e-05 0.00073761710554 -3.16774600556e-05 0.00133742074397) 
(0.00489665186322 0.00074868810982 3.87903502163e-05 0.000715023758112 -2.99288621009e-05 0.00135268841629) 
(0.00516763519277 0.000751529843326 3.43682028018e-05 0.000687704644513 -2.81105125165e-05 0.00136393129318) 
(0.0054534418534 0.000750641358848 3.02175561703e-05 0.000653368006849 -2.62267356859e-05 0.00136839457202) 
(0.00575264876312 0.000744092280561 2.63126386725e-05 0.000609669928529 -2.42823267049e-05 0.00136291979949) 
(0.00605983240819 0.000730021558823 2.26369707005e-05 0.000555084841668 -2.22823726991e-05 0.00134458230787) 
(0.00636305112435 0.000707147150205 1.91901068743e-05 0.000489990568936 -2.02321044935e-05 0.00131155932768) 
(0.00664165879176 0.000675344544201 1.59903100229e-05 0.000417597314395 -1.81376940925e-05 0.00126396333935) 
(0.00686572072858 0.000635986277938 1.30712983167e-05 0.000344128863188 -1.60089901912e-05 0.00120420183743) 
(0.00699833179633 0.000591726444818 1.0472893409e-05 0.000277719569068 -1.38642265193e-05 0.00113643537915) 
(0.00700121417155 0.000545597572972 8.22775287786e-06 0.000226063528514 -1.17350066164e-05 0.00106510358154) 
(0.00684258835794 0.000499702262752 6.34868856447e-06 0.000193638945648 -9.66853618126e-06 0.000993076595726) 
(0.00650507214713 0.000454196651211 4.8217986924e-06 0.000179832380923 -7.72425998879e-06 0.000920385009279) 
(0.00599110670863 0.000407309280532 3.60870140031e-06 0.000179092622096 -5.96428132193e-06 0.000844379052263) 
(0.00532437807928 0.000356613533589 2.6569978155e-06 0.000183216247022 -4.44028738114e-06 0.000761431247813) 
(0.00454725615338 0.000300922987426 1.91390654444e-06 0.000184601828582 -3.18210564382e-06 0.000669341696044) 
(0.00371528130849 0.000241641242885 1.33655939843e-06 0.000178742231797 -2.19263137247e-06 0.000569116975959) 
(0.0028896818045 0.000182674637023 8.94952485613e-07 0.000164849824179 -1.45067897792e-06 0.000465181704594) 
(0.00212853093538 0.000128960689391 5.68281013066e-07 0.000144820267014 -9.19412686537e-07 0.000364058228897) 
(0.00147756978718 8.45448128872e-05 3.38925049218e-07 0.000121640203275 -5.56008535284e-07 0.000272360119592) 
(0.000962900201452 5.12921004478e-05 1.88425044593e-07 9.82162434835e-05 -3.19047699033e-07 0.000195068903437) 
(0.00108165243414 6.23613534712e-05 0.000138043946828 0.000494374436828 -2.38812938219e-05 0.000445834883064) 
(0.00111492401421 8.30261019126e-05 0.00013653312883 0.000491698225726 -2.71391336804e-05 0.000456007992935) 
(0.00115139149673 0.00010843509163 0.000135120864456 0.000493956170845 -3.02143107122e-05 0.000472334741507) 
(0.00118947208314 0.000137821773742 0.000134048229143 0.00050302906692 -3.27731807444e-05 0.000495670721707) 
(0.00122911838634 0.000170003125719 0.000133488084737 0.000519481457611 -3.46394560467e-05 0.000525775212333) 
(0.00127251463728 0.000203542133354 0.000133457264061 0.000542118014843 -3.58471836943e-05 0.000561138131498) 
(0.00132387746578 0.000236906151391 0.000133768543314 0.000568150490184 -3.66118294096e-05 0.000599204659987) 
(0.00138831881616 0.000268652478356 0.000134060842862 0.000593957376859 -3.72390842799e-05 0.000636981651389) 
(0.00147006785965 0.000297701993808 0.000133920728678 0.000616204920548 -3.80180520073e-05 0.00067190112586) 
(0.00157058323082 0.000323700695145 0.000133062033571 0.000632986167174 -3.91437379946e-05 0.000702722795169) 
(0.00168726753541 0.000347323466145 0.000131481189094 0.000644584404249 -4.06889272553e-05 0.000730152629776) 
(0.00181354037909 0.000370268981449 0.000129492079623 0.000653487461221 -4.26165383543e-05 0.000756806475223) 
(0.00194066436283 0.000394772659963 0.000127594658636 0.000663479419187 -4.4809470013e-05 0.000786317416412) 
(0.00206084750095 0.000422744663467 0.000126229137578 0.000678067583166 -4.71004511777e-05 0.000821825111211) 
(0.00217022136005 0.000454938231957 0.000125547470109 0.000698954035978 -4.92980754555e-05 0.000864549611291) 
(0.00227013323308 0.000490606411878 0.000125329649596 0.000725338470968 -5.12149493726e-05 0.000913226066608) 
(0.00236611158573 0.000527817846778 0.000125082131823 0.000754383782399 -5.26962061097e-05 0.000964698908391) 
(0.00246527986188 0.000564206554908 0.000124244266792 0.000782472140034 -5.36463441546e-05 0.00101526491385) 
(0.00257376394592 0.000597721008541 0.000122382742975 0.0008064926536 -5.40423904859e-05 0.0010619747663) 
(0.00269529461294 0.000627051849876 0.000119289349971 0.000824563628551 -5.39263415569e-05 0.00110329141544) 
(0.00283120845039 0.00065168937032 0.000114974848229 0.000836076893692 -5.3382152953e-05 0.00113902003893) 
(0.0029812702887 0.00067175529115 0.000109602400508 0.000841331212161 -5.25061988968e-05 0.00116982477313) 
(0.00314459947724 0.000687778019301 0.00010341108402 0.000841092737896 -5.13832118907e-05 0.0011967136413) 
(0.00332030136392 0.000700501830371 9.66581435575e-05 0.000836271148155 -5.00744990219e-05 0.00122069955196) 
(0.00350775595301 0.00071074393067 8.95848883394e-05 0.000827738104399 -4.86179154741e-05 0.00124265130208) 
(0.0037066914973 0.000719284089381 8.24000907436e-05 0.000816233587662 -4.70342693615e-05 0.00126324969226) 
(0.00391717439216 0.000726768751612 7.52727571118e-05 0.000802301126557 -4.53345389356e-05 0.00128296102553) 
(0.00413959870532 0.000733624204071 6.83309978401e-05 0.000786209012198 -4.3525188604e-05 0.00130197412288) 
(0.00437461525555 0.000739985328709 6.16638497032e-05 0.000767887806566 -4.16101035909e-05 0.0013201244671) 
(0.00462314467357 0.000745613083128 5.53232598256e-05 0.000746799212646 -3.95917836784e-05 0.00133674210347) 
(0.00488625115993 0.000749834632276 4.93295180754e-05 0.000721856357719 -3.74718107361e-05 0.00135053337981) 
(0.00516481511224 0.000751525918395 4.36795479189e-05 0.000691425223353 -3.52516335396e-05 0.00135952633556) 
(0.00545885845803 0.000749149708865 3.8356896825e-05 0.000653484054786 -3.29336276088e-05 0.00136114208973) 
(0.00576620561887 0.000740928005605 3.33431308982e-05 0.000606107873226 -3.05218192313e-05 0.00135253585324) 
(0.00608041268991 0.000725209328803 2.8628642271e-05 0.000548326359283 -2.8022097364e-05 0.00133123859064) 
(0.00638838333718 0.000700955240841 2.42205441099e-05 0.000481128073976 -2.54423839069e-05 0.00129596971253) 
(0.00666846969203 0.000668262745671 2.01454598296e-05 0.00040822939833 -2.27937984519e-05 0.00124734168589) 
(0.00689024661414 0.000628633719067 1.64452897898e-05 0.000336064017809 -2.00938835492e-05 0.00118805410589) 
(0.00701710287318 0.000584710752314 1.31661190324e-05 0.000272543582609 -1.73718042227e-05 0.00112222153218) 
(0.0070118689818 0.000539378192428 1.03430139432e-05 0.000224711892796 -1.46734279664e-05 0.00105387875424) 
(0.00684441729063 0.000494513560412 7.98590117363e-06 0.000196143422065 -1.20627628737e-05 0.000985248359812) 
(0.00649907694277 0.000450055544971 6.07242583211e-06 0.000185354427066 -9.61665244234e-06 0.000915682336553) 
(0.00597955900746 0.000404088390212 4.55146855943e-06 0.000186237224189 -7.41239320814e-06 0.000842037251724) 
(0.00531006638469 0.000354133522595 3.35620594096e-06 0.000190496934548 -5.51187102611e-06 0.000760503632056) 
(0.0045327231847 0.000299021216728 2.42066781861e-06 0.000190865884077 -3.94842885054e-06 0.00066900186289) 
(0.00370231770097 0.000240198800577 1.69197774136e-06 0.000183399003775 -2.72189037739e-06 0.000568838361447) 
(0.0028791855862 0.000181609845991 1.13348862299e-06 0.000167854671459 -1.80313581264e-06 0.000464756657207) 
(0.00212066333275 0.00012820962481 7.19830594786e-07 0.000146485289087 -1.14498643893e-06 0.000363499926) 
(0.00147203986177 8.40463532477e-05 4.29237697719e-07 0.000122401045342 -6.94008684681e-07 0.00027177043572) 
(0.000959227294297 5.09841669967e-05 2.38549163359e-07 9.84606603e-05 -3.99174003828e-07 0.000194540551221) 
(0.00112945081675 6.35506535834e-05 0.000170264477931 0.000532017856257 -2.49097780374e-05 0.00046892994682) 
(0.00115918560871 8.35312577341e-05 0.000168068156048 0.000528310285786 -2.88731576439e-05 0.000477584388325) 
(0.00119380351675 0.000107730834508 0.000165615358244 0.000527574899159 -3.28070657105e-05 0.000490709928885) 
(0.00123232990182 0.000135330622473 0.000163145629391 0.000531338615007 -3.63116384868e-05 0.000508930097228) 
(0.00127460829187 0.000165213831096 0.000160915214485 0.000540324943677 -3.91186088086e-05 0.000532185833621) 
(0.00132191802064 0.000196130520599 0.000159100108464 0.000554047591773 -4.11683544429e-05 0.000559575026052) 
(0.00137703885408 0.000226816630075 0.000157705608722 0.000570802665221 -4.26071315208e-05 0.000589425810534) 
(0.00144360575256 0.000256112640177 0.000156539090226 0.000588113718957 -4.37135096788e-05 0.000619649290322) 
(0.00152483421752 0.000283165356029 0.00015528703721 0.000603529921545 -4.47945215097e-05 0.000648350858567) 
(0.00162195437813 0.000307731014778 0.000153682456429 0.000615550890103 -4.60975367375e-05 0.000674571855869) 
(0.00173296972714 0.000330448465606 0.000151679270579 0.000624342162117 -4.77644012032e-05 0.000698882910691) 
(0.00185249561748 0.000352846196829 0.000149520296186 0.000631867165923 -4.98259111539e-05 0.00072345861075) 
(0.00197314271041 0.000376920694326 0.00014763420185 0.000641219907243 -5.22174928911e-05 0.000751397590652) 
(0.00208811368373 0.000404380346464 0.000146403943615 0.000655335583208 -5.47994714738e-05 0.000785453686874) 
(0.00219381908149 0.000435913887574 0.000145939341192 0.000675677112897 -5.73785808099e-05 0.000826778153473) 
(0.0022911274233 0.000470884861995 0.000145986895246 0.000701588093074 -5.97379603722e-05 0.000874364391219) 
(0.00238463366717 0.000507598713447 0.000146019676426 0.000730624871058 -6.16748256223e-05 0.000925487306145) 
(0.00248054386148 0.000543948446349 0.000145437625122 0.000759581696295 -6.30411478418e-05 0.000976818797992) 
(0.00258446457943 0.000578064890933 0.00014376123689 0.000785580476141 -6.37707880327e-05 0.0010255565344) 
(0.0027001349179 0.000608694588116 0.000140733771674 0.000806715257014 -6.38807519325e-05 0.00107004054073) 
(0.00282931917553 0.00063526094351 0.000136322852283 0.000822137472289 -6.34496702296e-05 0.00110975763028) 
(0.00297241504792 0.000657729506385 0.000130660805223 0.000831787557504 -6.25838406867e-05 0.00114497687449) 
(0.00312918964618 0.000676421881772 0.000123972076148 0.000836047631373 -6.1386141606e-05 0.001176330553) 
(0.00329930462527 0.000691857668481 0.000116515711687 0.000835473477116 -5.99377136861e-05 0.00120452062461) 
(0.00348257099606 0.000704638249646 0.000108549122912 0.00083063633664 -5.82935659824e-05 0.00123017532014) 
(0.00367902637903 0.000715358003262 0.00010030803362 0.000822035543254 -5.64869310797e-05 0.00125379351935) 
(0.00388893806166 0.000724524161014 9.19954391542e-05 0.000810035165242 -5.45361448969e-05 0.00127570609794) 
(0.00411279801119 0.00073247788173 8.37768062186e-05 0.000794789943172 -5.24504389191e-05 0.0012960086454) 
(0.00435126634732 0.000739318050021 7.57778898301e-05 0.000776179546794 -5.02330381533e-05 0.0013144799722) 
(0.00460516043894 0.000744813885232 6.80842267345e-05 0.0007536925026 -4.78833142837e-05 0.00133044227747) 
(0.00487529860133 0.000748339935797 6.07445887555e-05 0.000726360614334 -4.53984923017e-05 0.00134265745544) 
(0.00516211462459 0.000748860088997 5.37788160451e-05 0.000692786503905 -4.27755708635e-05 0.00134929984147) 
(0.00546491610785 0.000744975000349 4.71885137513e-05 0.000651331452982 -4.00134432035e-05 0.00134806103784) 
(0.00578050443167 0.000735105358976 4.09698621338e-05 0.00060061317857 -3.71145094487e-05 0.00133651546901) 
(0.00610117527118 0.000717850262387 3.51258013483e-05 0.000540316594265 -3.40855782271e-05 0.00131273872048) 
(0.00641254632298 0.000692437661056 2.9674724719e-05 0.000472077921519 -3.09385476489e-05 0.00127603313086) 
(0.00669200737976 0.000659181818623 2.46533108139e-05 0.000400064306453 -2.76919421842e-05 0.00122748002003) 
(0.00690886921987 0.000619683222241 2.01116142603e-05 0.000330767852871 -2.43743739021e-05 0.00116996482889) 
(0.00702718777057 0.000576525751563 1.61008370665e-05 0.000271657138709 -2.102971856e-05 0.0011073956863) 
(0.00701133878803 0.000532395959924 1.26568581287e-05 0.000228886950115 -1.77216083352e-05 0.00104322610554) 
(0.00683324794319 0.000488905767529 9.78516488056e-06 0.000204929052913 -1.45334045916e-05 0.000978880884685) 
(0.0064792327065 0.000445750885816 7.4536635427e-06 0.000197319819969 -1.15604959957e-05 0.000912943789265) 
(0.00595436651534 0.000400862568223 5.59753418989e-06 0.000199403375607 -8.89502810686e-06 0.000841767519456) 
(0.00528326113016 0.000351718416015 4.13490742088e-06 0.000202917346067 -6.60756257807e-06 0.000761428483011) 
(0.00450752353519 0.000297187966034 2.98635989e-06 0.000201131432285 -4.73285332612e-06 0.000670090505776) 
(0.0036808377601 0.000238792739323 2.08903892068e-06 0.000190885416538 -3.26562630572e-06 0.000569499567702) 
(0.00286231185554 0.000180542217384 1.39979820095e-06 0.000172663484802 -2.16736620778e-06 0.000464833776196) 
(0.00210830250733 0.00012742797376 8.88719018458e-07 0.000149173181905 -1.37982357622e-06 0.000363122644663) 
(0.00146352316774 8.35068065439e-05 5.29619937219e-07 0.000123662813667 -8.38824637406e-07 0.000271169616286) 
(0.000953676723237 5.06382677969e-05 2.9409047394e-07 9.88999456996e-05 -4.83904021466e-07 0.000193913534679) 
(0.0011779077568 6.48698960215e-05 0.000204162452058 0.00057764950025 -2.55300119391e-05 0.000501287901442) 
(0.00120515488404 8.43575427702e-05 0.000201341526281 0.000572271998968 -3.01888457258e-05 0.000507582860416) 
(0.00123910933242 0.000107526586514 0.00019782314138 0.000567769725333 -3.49837668438e-05 0.0005164808039) 
(0.00127939259514 0.000133449391946 0.000193792520791 0.000565301896785 -3.94498605601e-05 0.000528370804146) 
(0.0013256990174 0.000161022574238 0.000189557742697 0.000565754003415 -4.32225476702e-05 0.000543397646619) 
(0.00137829054443 0.000189157859259 0.0001854634287 0.000569393945616 -4.61381946192e-05 0.000561336032329) 
(0.00143830602603 0.000216876391076 0.000181764091884 0.000575701434131 -4.82595980007e-05 0.000581519715785) 
(0.00150764755309 0.000243355521117 0.000178525594719 0.000583479582085 -4.98246728472e-05 0.000602916652595) 
(0.0015883055334 0.00026803399777 0.000175627444387 0.000591281633558 -5.11509837012e-05 0.00062443570131) 
(0.00168122361704 0.000290824117985 0.000172884521368 0.000598065464488 -5.25406177946e-05 0.000645449772048) 
(0.00178516355124 0.000312331717719 0.000170219749647 0.000603827835431 -5.4216582459e-05 0.000666331895484) 
(0.00189628463124 0.000333875688127 0.000167767183198 0.000609863843139 -5.62959316565e-05 0.000688654098104) 
(0.00200897750719 0.000357155205022 0.000165820771241 0.00061839180735 -5.87861055819e-05 0.00071477579179) 
(0.00211780953757 0.000383633055621 0.000164649852971 0.000631618103207 -6.15907732831e-05 0.000746891593115) 
(0.00221965599342 0.000413929523525 0.000164298446027 0.000650697595692 -6.45236189989e-05 0.000786004180268) 