/*--------------------------------*- C++ -*----------------------------------*\
| =========                 |                                                 |
| \\      /  F ield         | OpenFOAM: The Open Source CFD Toolbox           |
|  \\    /   O peration     | Version:  3.0.1                                 |
|   \\  /    A nd           | Web:      www.OpenFOAM.org                      |
|    \\/     M anipulation  |                                                 |
\*---------------------------------------------------------------------------*/
FoamFile
{
    version     2.0;
    format      ascii;
    class       volVectorField;
    location    "50000";
    object      U;
}
// * * * * * * * * * * * * * * * * * * * * * * * * * * * * * * * * * * * * * //

dimensions      [0 1 -1 0 0 0 0];

internalField   nonuniform List<vector> 
2500
(
(0.630673774821 6.64554511918e-13 -6.63735071276e-13)
(0.629915838488 1.94677434857e-12 -6.48311298164e-13)
(0.62851372128 3.12669899795e-12 -6.20313348431e-13)
(0.626573175244 4.19267637712e-12 -5.81876726572e-13)
(0.624186549008 5.13807115993e-12 -5.35527785284e-13)
(0.621430486434 5.95920372935e-12 -4.83440068933e-13)
(0.618366158199 6.65858234549e-12 -4.26499415539e-13)
(0.615040904126 7.24034011925e-12 -3.67090307569e-13)
(0.611490379837 7.70969413611e-12 -3.05088155005e-13)
(0.607740687279 8.07483234572e-12 -2.42210081899e-13)
(0.603810261242 8.34268554331e-12 -1.79097056442e-13)
(0.599711447999 8.52190320938e-12 -1.1614008447e-13)
(0.59545178649 8.61991059519e-12 -5.41569133838e-14)
(0.591035028368 8.64546437406e-12 6.79193540263e-15)
(0.586461936912 8.60667885701e-12 6.61795269193e-14)
(0.581730900368 8.51055875899e-12 1.23868218727e-13)
(0.576838388691 8.36448112361e-12 1.79559997255e-13)
(0.571779276577 8.17501881864e-12 2.33146466981e-13)
(0.566547050588 7.9485102218e-12 2.84469206724e-13)
(0.561133914068 7.69060319741e-12 3.33453074637e-13)
(0.555530800123 7.40653998199e-12 3.79997220458e-13)
(0.549727299714 7.10109860177e-12 4.24101546739e-13)
(0.543711508684 6.77862064389e-12 4.65684429564e-13)
(0.53746979393 6.44311576992e-12 5.04806526211e-13)
(0.530986474622 6.09815862893e-12 5.41316134437e-13)
(0.524243409136 5.74686282491e-12 5.75289264625e-13)
(0.517219471684 5.39205038307e-12 6.06661504422e-13)
(0.509889893967 5.0362662064e-12 6.35427958488e-13)
(0.502225435546 4.68183625415e-12 6.61553917357e-13)
(0.494191330776 4.33077568752e-12 6.85015656566e-13)
(0.485745937768 3.98486972807e-12 7.05741700786e-13)
(0.476838982791 3.64565536869e-12 7.23642346259e-13)
(0.467409246531 3.31455472292e-12 7.38634911096e-13)
(0.457381468521 2.99284501644e-12 7.50583660166e-13)
(0.446662140037 2.68158438549e-12 7.59313580416e-13)
(0.435133693424 2.38181654553e-12 7.64610736553e-13)
(0.422646346459 2.09450903446e-12 7.66177770078e-13)
(0.409006480819 1.8205474576e-12 7.63610673608e-13)
(0.393959879882 1.56080807898e-12 7.5637530473e-13)
(0.377167445778 1.31615809352e-12 7.43723418498e-13)
(0.358170541827 1.08759754266e-12 7.24624676416e-13)
(0.336344752535 8.76263429863e-13 6.97621267016e-13)
(0.310852162696 6.8354593321e-13 6.60688308821e-13)
(0.280648946376 5.11183977655e-13 6.11139895997e-13)
(0.244744033758 3.61257189295e-13 5.46080987152e-13)
(0.203055119381 2.36151168709e-13 4.64208940713e-13)
(0.157449540091 1.37971769478e-13 3.68549565049e-13)
(0.11092844893 6.69618459196e-14 2.65496567498e-13)
(0.0654526399778 2.20353204653e-14 1.59990178039e-13)
(0.0215956319949 1.17086829937e-15 5.40631369124e-14)
(0.629915856903 6.48712382516e-13 -1.94491613765e-12)
(0.629156482553 1.90048163881e-12 -1.8996049551e-12)
(0.627751575266 3.05282861747e-12 -1.81723990822e-12)
(0.625806979166 4.09384971385e-12 -1.70470862268e-12)
(0.623415237932 5.01640953585e-12 -1.5687458696e-12)
(0.620653312759 5.81815094649e-12 -1.41570746227e-12)
(0.617582782381 6.50035056109e-12 -1.24909909503e-12)
(0.614251437684 7.06797443949e-12 -1.07422421049e-12)
(0.610695384572 7.52618919711e-12 -8.93206435344e-13)
(0.606941141148 7.88161633006e-12 -7.09275076599e-13)
(0.60300750128 8.1425075575e-12 -5.24391278083e-13)
(0.598907098793 8.31667160414e-12 -3.40272700739e-13)
(0.594647680899 8.41168455392e-12 -1.58568980224e-13)
(0.590233125875 8.43625819305e-12 2.00042386556e-14)
(0.585664244116 8.39803340561e-12 1.94005975426e-13)
(0.580939397343 8.30398495467e-12 3.62907189316e-13)
(0.57605496422 8.16121067309e-12 5.25997333943e-13)
(0.571005674426 7.97621017213e-12 6.82873584463e-13)
(0.565784828138 7.75510065788e-12 8.33140640973e-13)
(0.560384413735 7.50336814665e-12 9.76540829804e-13)
(0.554795133188 7.22620399992e-12 1.11291014146e-12)
(0.549006341521 6.9282088974e-12 1.24202592536e-12)
(0.543005903676 6.61373521885e-12 1.3638208814e-12)
(0.53677996868 6.28642119876e-12 1.47831754255e-12)
(0.53031265692 5.94980849192e-12 1.58536744476e-12)
(0.523585651253 5.60714804316e-12 1.68487881154e-12)
(0.516577676093 5.2609783181e-12 1.77690471947e-12)
(0.509263840058 4.913902949e-12 1.86125231048e-12)
(0.501614806193 4.56819423991e-12 1.93787666421e-12)
(0.493595737893 4.22576436943e-12 2.00666293185e-12)
(0.485164946301 3.88822699432e-12 2.06740889295e-12)
(0.476272132881 3.55719914432e-12 2.11991966288e-12)
(0.466856073835 3.23410282245e-12 2.16386796329e-12)
(0.45684152294 2.92009712679e-12 2.19887963934e-12)
(0.446135003413 2.61628865442e-12 2.22445635777e-12)
(0.434618997196 2.32372754269e-12 2.23993254543e-12)
(0.422143791024 2.04328829933e-12 2.24444041731e-12)
(0.408515859813 1.77587466273e-12 2.23680110616e-12)
(0.393481115811 1.52235106755e-12 2.21543429658e-12)
(0.376700650793 1.28356578931e-12 2.17815196531e-12)
(0.357716135484 1.06051511316e-12 2.12192004377e-12)
(0.335903713904 8.54299294994e-13 2.04248167265e-12)
(0.310426607848 6.66246507757e-13 1.933905502e-12)
(0.280243458349 4.98083645793e-13 1.7883828282e-12)
(0.244368262082 3.51919407766e-13 1.59747565655e-12)
(0.202726028526 2.29995955282e-13 1.3574728501e-12)
(0.15718634224 1.34337810957e-13 1.07734380176e-12)
(0.110741548171 6.51770085235e-14 7.75819069059e-13)
(0.0653426216789 2.14358919525e-14 4.67333166008e-13)
(0.0215595246682 1.13503375127e-15 1.57836870686e-13)
(0.628513768335 6.20181794468e-13 -3.12574276279e-12)
(0.627751604034 1.81721372267e-12 -3.05226537562e-12)
(0.626341298929 2.91944209156e-12 -2.91923552061e-12)
(0.624388882736 3.91514269313e-12 -2.73828387611e-12)
(0.621987260945 4.79691763454e-12 -2.51975080159e-12)
(0.619213971134 5.56298070147e-12 -2.27319079333e-12)
(0.616131331499 6.21458449062e-12 -2.00579423315e-12)
(0.612787953894 6.75583259571e-12 -1.72406887198e-12)
(0.609220770286 7.19236659774e-12 -1.43340968149e-12)
(0.605457070737 7.5309231538e-12 -1.1377939542e-12)
(0.601516325321 7.77895822317e-12 -8.40675323039e-13)
(0.597411721111 7.94409016131e-12 -5.45000443481e-13)
(0.593151419854 8.03402112705e-12 -2.53051289664e-13)
(0.588739569181 8.05650893843e-12 3.34763840141e-14)
(0.584177105043 8.01888920943e-12 3.12759684998e-13)
(0.579462379048 7.92826103235e-12 5.83761734008e-13)
(0.574591637823 7.79126908894e-12 8.45421043359e-13)
(0.569559375208 7.61414246695e-12 1.09709922635e-12)
(0.564358572816 7.40267710999e-12 1.33816528086e-12)
(0.558980840277 7.16224940853e-12 1.56823101386e-12)
(0.553416463169 6.89750783417e-12 1.78698615513e-12)
(0.547654363729 6.61287415641e-12 1.99422690183e-12)
(0.541681976648 6.31281116216e-12 2.1897855177e-12)
(0.535485039138 6.00070382756e-12 2.37350026166e-12)
(0.529047290729 5.67950966133e-12 2.54537697258e-12)
(0.522350073443 5.35268431496e-12 2.70523643135e-12)
(0.515371816727 5.0225528517e-12 2.85301729476e-12)
(0.508087383082 4.69131824696e-12 2.98858137417e-12)
(0.500467238929 4.36153487067e-12 3.11177118087e-12)
(0.492476399378 4.0347806068e-12 3.22234164665e-12)
(0.484073073245 3.71275875071e-12 3.32002582029e-12)
(0.475206902551 3.39687799433e-12 3.40446621505e-12)
(0.465816643684 3.08839782796e-12 3.47517237551e-12)
(0.455827067346 2.78865555163e-12 3.53153487344e-12)
(0.445144748472 2.49858420237e-12 3.57273720559e-12)
(0.433652255375 2.21918925265e-12 3.59771705317e-12)
(0.421199998917 1.95137097219e-12 3.60504333242e-12)
(0.407594625032 1.69596995361e-12 3.59284971011e-12)
(0.39258228511 1.45381532962e-12 3.55855104406e-12)
(0.375824425451 1.225695918e-12 3.49864574792e-12)
(0.356863293927 1.01261466462e-12 3.40823813853e-12)
(0.335076087342 8.15625112014e-13 3.28047906816e-12)
(0.309628168381 6.36044328959e-13 3.10583786347e-12)
(0.27948282089 4.75503995567e-13 2.8717861508e-12)
(0.243663558191 3.35930628408e-13 2.56483035223e-12)
(0.202109069923 2.19543113974e-13 2.17914886854e-12)
(0.156693044325 1.2825129284e-13 1.72927172772e-12)
(0.110391287379 6.22404071939e-14 1.24522295479e-12)
(0.0651364461926 2.04803974241e-14 7.50066711634e-13)
(0.021491859211 1.08902509111e-15 2.53317345854e-13)
(0.626573251875 5.8186964509e-13 -4.19248226728e-12)
(0.625807037909 1.70480883875e-12 -4.09358046917e-12)
(0.624388913122 2.73850296741e-12 -3.91490802577e-12)
(0.622425174719 3.67199166384e-12 -3.67176034034e-12)
(0.6200092139 4.49828819428e-12 -3.37838518591e-12)
(0.61721933144 5.21558185633e-12 -3.04697556736e-12)
(0.614118828034 5.82518465442e-12 -2.68787326791e-12)
(0.610757416672 6.33096828359e-12 -2.3096125832e-12)
(0.607173151802 6.73821963298e-12 -1.91921653678e-12)
(0.60339438996 7.05335348739e-12 -1.52236618776e-12)
(0.599441555625 7.28349361361e-12 -1.12375227268e-12)
(0.595328639902 7.435881551e-12 -7.27242043283e-13)
(0.591064433956 7.5178771167e-12 -3.35895946984e-13)
(0.58665352746 7.53691080588e-12 4.78183636878e-14)
(0.58209710816 7.49995847735e-12 4.21841110141e-13)
(0.577393595071 7.41357877688e-12 7.84605624749e-13)
(0.572539131429 7.28408899833e-12 1.13486296246e-12)
(0.567527956949 7.11735255708e-12 1.47166000484e-12)
(0.562352673428 6.91871807977e-12 1.79424918915e-12)
(0.557004413252 6.69317405115e-12 2.10210826177e-12)
(0.551472916975 6.44529437409e-12 2.39479471022e-12)
(0.54574652323 6.17912538224e-12 2.6721757773e-12)
(0.539812071707 5.89838485914e-12 2.93398335911e-12)
(0.533654717141 5.60654509858e-12 3.17991743063e-12)
(0.527257648932 5.30656520111e-12 3.41003617472e-12)
(0.520601706661 5.00119958226e-12 3.62419434657e-12)
(0.513664875862 4.69282865324e-12 3.82213151507e-12)
(0.506421640341 4.38364438283e-12 4.0037686433e-12)
(0.4988421561 4.07559942995e-12 4.16890459473e-12)
(0.490891196243 3.77038980593e-12 4.31718184127e-12)
(0.48252679399 3.46956022966e-12 4.44826553336e-12)
(0.473698478778 3.17444947764e-12 4.56161551509e-12)
(0.464344953434 2.88633660045e-12 4.65661432245e-12)
(0.454390990338 2.60629388732e-12 4.73240038876e-12)
(0.443743218679 2.33528109283e-12 4.78787917931e-12)
(0.432284313327 2.07418273862e-12 4.8216129954e-12)
(0.419864848214 1.8238750142e-12 4.83167820838e-12)
(0.406291701591 1.58513912404e-12 4.81553192569e-12)
(0.391311356306 1.35870662847e-12 4.76970798097e-12)
(0.374585756173 1.14542746745e-12 4.68948460949e-12)
(0.355657964905 9.46164267772e-13 4.56829443441e-12)
(0.333906672991 7.61963759726e-13 4.39691975945e-12)
(0.308500284281 5.94065824007e-13 4.16257458902e-12)
(0.27840867283 4.43996215812e-13 3.84844838207e-12)
(0.242668819001 3.13595377963e-13 3.43657529844e-12)
(0.201238637825 2.04925657439e-13 2.91938320534e-12)
(0.155997362675 1.1971560872e-13 2.31653244414e-12)
(0.109897409106 5.81020678612e-14 1.66813651443e-12)
(0.0648457413982 1.91201861514e-14 1.00487065451e-12)
(0.0213964519465 1.014752099e-15 3.39397969095e-13)
(0.624186648853 5.35461448513e-13 -5.13769935886e-12)
(0.623415320637 1.56875555853e-12 -5.01628463227e-12)
(0.621987316288 2.51992869498e-12 -4.79676843081e-12)
(0.620009239546 3.37851515553e-12 -4.49819681206e-12)
(0.617575023986 4.13781953259e-12 -4.13777349742e-12)
(0.614763832518 4.79632907657e-12 -3.73065123629e-12)
(0.6116400941 5.35502008086e-12 -3.2895361236e-12)
(0.608254808317 5.81756580781e-12 -2.82505431502e-12)
(0.604647365689 6.18906209683e-12 -2.34587249732e-12)
(0.600847419083 6.47556268884e-12 -1.85905544662e-12)
(0.596876582791 6.68364974084e-12 -1.37034697517e-12)
(0.592749883482 6.82020905503e-12 -8.84393633659e-13)
(0.588476960981 6.89226446526e-12 -4.0516447391e-13)
(0.584063046285 6.90659404885e-12 6.43716200369e-14)
(0.579509751273 6.86968736865e-12 5.21737811287e-13)
(0.574815701708 6.78783512325e-12 9.65372323007e-13)
(0.569977038945 6.66682164197e-12 1.39341454681e-12)
(0.564987809068 6.5120028828e-12 1.80490860321e-12)
(0.559840252321 6.32838625157e-12 2.19895347284e-12)
(0.554525000851 6.12049753165e-12 2.57495159469e-12)
(0.549031189026 5.89256073698e-12 2.93241349342e-12)
(0.543346477585 5.64826864668e-12 3.27105648173e-12)
(0.537456990308 5.39075779804e-12 3.59066236025e-12)
(0.531347159363 5.12344504268e-12 3.89106063001e-12)
(0.52499947251 4.84903232855e-12 4.17214847011e-12)
(0.518394111459 4.56969596662e-12 4.43374622345e-12)
(0.511508465283 4.28764266155e-12 4.67575002279e-12)
(0.504316495128 4.00507291885e-12 4.89789244254e-12)
(0.496787915702 3.7237006966e-12 5.09992425393e-12)
(0.488887143545 3.44490114547e-12 5.28144757196e-12)
(0.480571940062 3.17016347331e-12 5.44205397339e-12)
(0.471791645278 2.90062058699e-12 5.5810158979e-12)
(0.462484851288 2.63739851615e-12 5.69758773893e-12)
(0.452576294434 2.3815544036e-12 5.79068198896e-12)
(0.441972639563 2.13395140896e-12 5.85894274822e-12)
(0.430556668598 1.89536407646e-12 5.90057185718e-12)
(0.418179139071 1.66657485781e-12 5.91321944882e-12)
(0.40464720521 1.44829922383e-12 5.89372074314e-12)
(0.389707755772 1.24126551219e-12 5.83783738659e-12)
(0.373023355036 1.04627225012e-12 5.73974024458e-12)
(0.354138094922 8.64116116792e-13 5.59135142662e-12)
(0.332432558432 6.95728232184e-13 5.38135510646e-12)
(0.307079009485 5.42234667097e-13 5.09406343654e-12)
(0.27705567902 4.05093204659e-13 4.70893309714e-12)
(0.241416555371 2.86052266826e-13 4.20412857032e-12)
(0.200143610892 1.8690352334e-13 3.57074256032e-12)
(0.15512264839 1.0920260405e-13 2.8331359521e-12)
(0.109276568858 5.30216716233e-14 2.04019633973e-12)
(0.0644803193154 1.74586189681e-14 1.22909013301e-12)
(0.0212765232647 9.30033119384e-16 4.15167299888e-13)
(0.621430598886 4.83221385441e-13 -5.95900685565e-12)
(0.62065340918 1.4156071497e-12 -5.81791436471e-12)
(0.619214041814 2.27336576275e-12 -5.56283409662e-12)
(0.617219373902 3.04710096644e-12 -5.21550883756e-12)
(0.614763850188 3.73076123538e-12 -4.79624615203e-12)
(0.611927495974 4.32266404151e-12 -4.32257546011e-12)
(0.608775913077 4.82382377897e-12 -3.80946885647e-12)
(0.60536147756 5.23754999639e-12 -3.26929007914e-12)
(0.601725045824 5.56850588947e-12 -2.71221706146e-12)
(0.59789772912 5.82231356054e-12 -2.14658151075e-12)
(0.593902517837 6.00525675937e-12 -1.57918634605e-12)
(0.589755676908 6.12338003467e-12 -1.01546150193e-12)
(0.585467906186 6.18317954744e-12 -4.59835780987e-13)
(0.581045290137 6.1912514994e-12 8.41566329372e-14)
(0.576490069525 6.15406363946e-12 6.13835485092e-13)
(0.571801265928 6.07669780444e-12 1.12692000134e-12)
(0.566975184134 5.96432381282e-12 1.62183784983e-12)
(0.562005810888 5.8223397717e-12 2.09729612525e-12)
(0.556885122264 5.65497462272e-12 2.55243356443e-12)
(0.551603306729 5.46634645424e-12 2.98653550232e-12)
(0.546148906679 5.26022966462e-12 3.39921665702e-12)
(0.540508877852 5.03998281249e-12 3.79006891691e-12)
(0.534668563165 4.8085104658e-12 4.15898827763e-12)
(0.528611574984 4.56870160911e-12 4.50578302461e-12)
(0.522319576985 4.3227932616e-12 4.83028312504e-12)
(0.515771953266 4.07301198962e-12 5.13236813836e-12)
(0.50894534745 3.82115167205e-12 5.41188696636e-12)
(0.5018130474 3.56886439858e-12 5.66863508638e-12)
(0.494344180943 3.31772286492e-12 5.90220701011e-12)
(0.486502672971 3.06917764789e-12 6.11222027322e-12)
(0.478245892655 2.82419776142e-12 6.29805376974e-12)
(0.469522887701 2.58382638129e-12 6.45901513007e-12)
(0.460272055833 2.34928081822e-12 6.59414799156e-12)
(0.450418033865 2.12123304471e-12 6.7022021749e-12)
(0.439867479349 1.90053058953e-12 6.78156018775e-12)
(0.428503259187 1.68787719531e-12 6.83012170616e-12)
(0.416176314297 1.48395191812e-12 6.84512002952e-12)
(0.402694099321 1.28940587884e-12 6.82286533267e-12)
(0.387803964925 1.1048852934e-12 6.75840934565e-12)
(0.371169199592 9.31072003323e-13 6.64495644196e-12)
(0.352335112633 7.68697042147e-13 6.47309739906e-12)
(0.330684543899 6.18628387445e-13 6.22968086458e-12)
(0.305394371908 4.81913064814e-13 5.89649637834e-12)
(0.275452807421 3.59883409289e-13 5.4497939002e-12)
(0.239934049158 2.54016380561e-13 4.86447852064e-12)
(0.198848333726 1.65918771702e-13 4.13075583315e-12)
(0.154088650119 9.69592274145e-14 3.27719944236e-12)
(0.108542869861 4.70938607538e-14 2.36010993813e-12)
(0.0640484901119 1.55134484194e-14 1.42199596199e-12)
(0.021134800659 8.26656043735e-16 4.80409237403e-13)
(0.618366271181 4.26445973877e-13 -6.65846971396e-12)
(0.617582880761 1.2490479468e-12 -6.50016349271e-12)
(0.616131406335 2.00582759751e-12 -6.21437140205e-12)
(0.614118876877 2.68794365451e-12 -5.82510940996e-12)
(0.611640119856 3.2895989624e-12 -5.35489766878e-12)
(0.608775922053 3.80952184707e-12 -4.82374479692e-12)
(0.60559300351 4.24833269217e-12 -4.24827784886e-12)
(0.602145114381 4.6091161759e-12 -3.64268321503e-12)
(0.59847462502 4.89608625336e-12 -3.01841647492e-12)
(0.594614198304 5.11429526561e-12 -2.38495780935e-12)
(0.590588332749 5.26940561789e-12 -1.74993827437e-12)
(0.586414695792 5.36726208397e-12 -1.11969936069e-12)
(0.582105237029 5.41378135143e-12 -4.98888614905e-13)
(0.577667102347 5.41491272324e-12 1.0845936799e-13)
(0.57310337962 5.37602354913e-12 6.99275421157e-13)
(0.568413705921 5.30235211937e-12 1.27085989797e-12)
(0.563594761164 5.19876497937e-12 1.82185354063e-12)
(0.558640666785 5.06967072119e-12 2.35074469874e-12)
(0.553543301864 4.91907626101e-12 2.8566734668e-12)
(0.548292543491 4.75065027269e-12 3.33894141251e-12)
(0.542876433466 4.56764853886e-12 3.79725073363e-12)
(0.537281269437 4.37304387931e-12 4.23114137886e-12)
(0.531491615268 4.16929477726e-12 4.64058240316e-12)
(0.525490222465 3.95877133446e-12 5.02534249604e-12)
(0.519257851554 3.74358805573e-12 5.38551062077e-12)
(0.51277297885 3.52544388065e-12 5.72084273557e-12)
(0.506011369442 3.30597917424e-12 6.03115401525e-12)
(0.498945490653 3.08653294991e-12 6.31625738938e-12)
(0.491543730497 2.8683873159e-12 6.57572948209e-12)
(0.483769371339 2.65255489569e-12 6.80922004723e-12)
(0.475579247784 2.4401273013e-12 7.01592640001e-12)
(0.466921986557 2.23205452606e-12 7.19511696096e-12)
(0.457735679735 2.02899320175e-12 7.34566439743e-12)
(0.447944773198 1.83167637125e-12 7.46615600011e-12)
(0.437455847226 1.64076441693e-12 7.554768914e-12)
(0.426151806271 1.45683641968e-12 7.60911379416e-12)
(0.413883751103 1.28043871518e-12 7.62607456065e-12)
(0.400459439905 1.11217934605e-12 7.60149054381e-12)
(0.385626721491 9.52629520254e-13 7.52980995593e-12)
(0.36904969293 8.023682986e-13 7.40336973551e-12)
(0.350275048735 6.62065900224e-13 7.21164218193e-12)
(0.328688220898 5.32452094267e-13 6.93989665012e-12)
(0.303471405711 4.14466783585e-13 6.56780493741e-12)
(0.273624301962 3.09223433778e-13 6.06891975969e-12)
(0.238244238932 2.18088757031e-13 5.41557630032e-12)
(0.197373372579 1.42425434929e-13 4.59750922398e-12)
(0.15291210414 8.32331169474e-14 3.64704638546e-12)
(0.107708277591 4.04431968758e-14 2.62653425733e-12)
(0.0635573056001 1.33332725024e-14 1.58268493278e-12)
(0.0209735986264 7.1576738537e-16 5.34778047466e-13)
(0.615041006048 3.66934002498e-13 -7.24036071844e-12)
(0.61425152669 1.07419588431e-12 -7.06793525777e-12)
(0.612788022018 1.72413038182e-12 -6.75573837775e-12)
(0.610757461658 2.30965256244e-12 -6.33093010822e-12)
(0.60825483266 2.82515425753e-12 -5.81749415531e-12)
(0.605361486815 3.2693090159e-12 -5.23749265854e-12)
(0.602145115489 3.64272875545e-12 -4.60905319858e-12)
(0.598660754799 3.94790142951e-12 -3.94783930801e-12)
(0.594952259988 4.18862730274e-12 -3.26653121199e-12)
(0.591053871462 4.36940730884e-12 -2.5756357065e-12)
(0.58699167116 4.49525226599e-12 -1.8835400399e-12)
(0.582784847939 4.57146658479e-12 -1.19717061177e-12)
(0.578446757829 4.60347083774e-12 -5.21877031588e-13)
(0.573985796457 4.596423306e-12 1.38009879774e-13)
(0.569406111813 4.55533984057e-12 7.79153595804e-13)
(0.564708186126 4.48496925155e-12 1.39901550799e-12)
(0.559889311536 4.38963787506e-12 1.99577307728e-12)
(0.554943978504 4.27328364788e-12 2.56800916441e-12)
(0.549864189906 4.13940811864e-12 3.11485403205e-12)
(0.544639708102 3.99134285877e-12 3.63569891074e-12)
(0.539258237163 3.83169916073e-12 4.13022253545e-12)
(0.533705537964 3.66305266941e-12 4.59818045195e-12)
(0.527965469891 3.48758010463e-12 5.03956521597e-12)
(0.522019949354 3.30754567164e-12 5.45419254838e-12)
(0.515848811855 3.12442327952e-12 5.84220168939e-12)
(0.509429560646 2.93932450808e-12 6.20342303977e-12)
(0.502736980384 2.7538259163e-12 6.53777805397e-12)
(0.495742587851 2.56883384643e-12 6.84499308177e-12)
(0.488413882584 2.38558445162e-12 7.12475504657e-12)
(0.480713346535 2.20475196555e-12 7.37649230194e-12)
(0.472597121414 2.02686980416e-12 7.5995912738e-12)
(0.464013261777 1.85292507107e-12 7.79304152781e-12)
(0.454899416107 1.68343857168e-12 7.95567748911e-12)
(0.445179719274 1.51889868192e-12 8.08592093135e-12)
(0.434760575378 1.35983631696e-12 8.18176513933e-12)
(0.423524851066 1.20671126664e-12 8.24056505261e-12)
(0.41132375734 1.05995821843e-12 8.25891822534e-12)
(0.397965335176 9.2011642647e-13 8.23226733216e-12)
(0.383197945988 7.87528186723e-13 8.15451630756e-12)
(0.366686559425 6.62667596311e-13 8.0173253665e-12)
(0.347979402248 5.46228539559e-13 7.80918399485e-12)
(0.326464808508 4.38796393094e-13 7.51407271247e-12)
(0.301330954022 3.4113276471e-13 7.1098917005e-12)
(0.271590441924 2.54147753009e-13 6.5680792943e-12)
(0.236366414817 1.79009663565e-13 5.8590298667e-12)
(0.19573611182 1.16791308215e-13 4.97241858783e-12)
(0.151607202449 6.82360329038e-14 3.94384041876e-12)
(0.106782949337 3.3157290959e-14 2.84034163365e-12)
(0.0630127528923 1.09328821765e-14 1.71170713543e-12)
(0.0207948822126 5.84895084181e-16 5.78467851027e-13)
(0.611490460744 3.05061973368e-13 -7.70976338372e-12)
(0.610695454428 8.93229147638e-13 -7.52613222988e-12)
(0.609220822261 1.43343240017e-12 -7.19234713356e-12)
(0.60717318397 1.91925668514e-12 -6.73806612414e-12)
(0.60464738024 2.345942159e-12 -6.18900151922e-12)
(0.601725047634 2.71225434828e-12 -5.56846752906e-12)
(0.598474620207 3.01847206799e-12 -4.89599189123e-12)
(0.59495225478 3.26660908493e-12 -4.18856260467e-12)
(0.591203191449 3.4599042735e-12 -3.45979740702e-12)
(0.587263210017 3.60224894041e-12 -2.72121617558e-12)
(0.583159994435 3.6980174428e-12 -1.98196143975e-12)
(0.578914324886 3.7518708197e-12 -1.24939665835e-12)
(0.574541079925 3.76860319995e-12 -5.29442646405e-13)
(0.570050062029 3.75289992909e-12 1.73322258023e-13)
(0.565446671807 3.70910111558e-12 8.5519441363e-13)
(0.560732457954 3.64150440302e-12 1.51341728796e-12)
(0.555905567051 3.55388045119e-12 2.1463848555e-12)
(0.550961112361 3.44972046378e-12 2.75249076376e-12)
(0.545891475283 3.33219153881e-12 3.33104703003e-12)
(0.540686547637 3.20408531468e-12 3.88139467573e-12)
(0.535333917801 3.0677126117e-12 4.40318461071e-12)
(0.529818998862 2.92531276376e-12 4.89668982516e-12)
(0.524125092453 2.77836952553e-12 5.36159570633e-12)
(0.518233377727 2.62871202644e-12 5.79826651185e-12)
(0.51212281073 2.47776500599e-12 6.20656538286e-12)
(0.505769915131 2.32630949758e-12 6.58651210184e-12)
(0.499148440191 2.17545160399e-12 6.9381695083e-12)
(0.492228855403 2.025899797e-12 7.26126472972e-12)
(0.484977642157 1.87831499435e-12 7.55551671308e-12)
(0.477356329539 1.73329438524e-12 7.82031875522e-12)
(0.469320201559 1.59133918493e-12 8.05504468788e-12)
(0.460816573319 1.45287552186e-12 8.2586826854e-12)
(0.451782488659 1.31835677929e-12 8.42990557913e-12)
(0.442141623793 1.18807957591e-12 8.56704036786e-12)
(0.431800078017 1.06235869486e-12 8.6679053672e-12)
(0.420640574842 9.41559302906e-13 8.72968101225e-12)
(0.408514357058 8.26018001613e-13 8.74866990062e-12)
(0.39522970087 7.16040426922e-13 8.72000207444e-12)
(0.380535470315 6.11954582968e-13 8.63711283155e-12)
(0.364097549331 5.14067235173e-13 8.49112413614e-12)
(0.345465822719 4.22932106593e-13 8.26974464043e-12)
(0.324031813282 3.38986379202e-13 7.95590834759e-12)
(0.298990304098 2.62890969452e-13 7.52614754682e-12)
(0.269368145054 1.95382613761e-13 6.95028532077e-12)
(0.234316773069 1.37282799222e-13 6.19742404233e-12)
(0.19395123281 8.94232651424e-14 5.25758228021e-12)
(0.150185970458 5.22015937469e-14 4.1691433922e-12)
(0.105775500687 2.53692897252e-14 3.00255284452e-12)
(0.0624199110544 8.3664736886e-15 1.80960214218e-12)
(0.0206003184158 4.489718131e-16 6.11628179784e-13)
(0.607740739365 2.42139086613e-13 -8.07473974883e-12)
(0.606941184151 7.09295463145e-13 -7.88154931406e-12)
(0.605457099074 1.13791900589e-12 -7.53085123623e-12)
(0.603394402138 1.52241934208e-12 -7.05323041717e-12)
(0.600847417085 1.85904959804e-12 -6.47547040418e-12)
(0.597897717216 2.14662288104e-12 -5.82224843427e-12)
(0.594614181839 2.38501879826e-12 -5.11415607284e-12)
(0.591053855882 2.57570960386e-12 -4.36931802626e-12)
(0.587263200224 2.72135102612e-12 -3.60213234682e-12)
(0.583279436174 2.82503348487e-12 -2.82491673797e-12)
(0.579131813197 2.89063924384e-12 -2.0475705289e-12)
(0.574842722561 2.92207974064e-12 -1.27797396837e-12)
(0.570428636611 2.92351957078e-12 -5.22418745777e-13)
(0.565900883068 2.89878868984e-12 2.14072149931e-13)
(0.561266276245 2.8516107863e-12 9.27712157961e-13)
(0.556527630041 2.78632177624e-12 1.61570580507e-12)
(0.551684175715 2.70602109326e-12 2.27609601887e-12)
(0.546731903449 2.61360146613e-12 2.90751774108e-12)
(0.541663841902 2.51183113499e-12 3.50916077534e-12)
(0.53647028493 2.40278266166e-12 4.08062805303e-12)
(0.531138969693 2.28907192247e-12 4.62173384561e-12)
(0.525655205455 2.17203521191e-12 5.13261128851e-12)
(0.520001947604 2.0530456941e-12 5.61337969804e-12)
(0.5141598066 1.93381324893e-12 6.06434408683e-12)
(0.50810697669 1.81462566999e-12 6.48564426026e-12)
(0.501819064066 1.69658555324e-12 6.87751776803e-12)
(0.495268788348 1.58041567463e-12 7.23990907542e-12)
(0.488425524209 1.46627253632e-12 7.57282487064e-12)
(0.481254640621 1.35475513989e-12 7.87586430955e-12)
(0.473716582027 1.24614590349e-12 8.1486355888e-12)
(0.465765616351 1.14062939921e-12 8.39032746399e-12)
(0.457348145728 1.03836025142e-12 8.59999004924e-12)
(0.44840043179 9.39539993542e-13 8.77621187014e-12)
(0.438845520414 8.44346646778e-13 8.91724860595e-12)
(0.42858904866 7.52943797134e-13 9.02076097496e-12)
(0.417513460541 6.65471901579e-13 9.08381634057e-12)
(0.405469920954 5.8210413855e-13 9.10243678407e-12)
(0.392266863904 5.0304782117e-13 9.07154246769e-12)
(0.377653618493 4.28450524432e-13 8.98419779764e-12)
(0.361296999687 3.5858389601e-13 8.83107856266e-12)
(0.342748653375 2.93803586562e-13 8.59930018311e-12)
(0.321403555348 2.34398754282e-13 8.27100481233e-12)
(0.296463694918 1.8083568962e-13 7.82175444527e-12)
(0.26697145123 1.33649959566e-13 7.22024845711e-12)
(0.232108862912 9.34149132954e-14 6.43492129416e-12)
(0.19203110188 6.05954391813e-14 5.45649362753e-12)
(0.148658574422 3.53034298711e-14 4.32566769843e-12)
(0.104693222899 1.71354893682e-14 3.11505417697e-12)
(0.0617830789227 5.64474577555e-15 1.87746266741e-12)
(0.0203913181265 3.01702720136e-16 6.34610896009e-13)
(0.603810278972 1.79046109781e-13 -8.34253906145e-12)
(0.603007511928 5.24388951229e-13 -8.14232168965e-12)
(0.601516324605 8.40732031003e-13 -7.77884962637e-12)
(0.599441542569 1.12379269138e-12 -7.28339880014e-12)
(0.596876559248 1.37035557682e-12 -6.68357399703e-12)
(0.593902487549 1.57925432695e-12 -6.00520442028e-12)
(0.590588300343 1.75000328808e-12 -5.26927299284e-12)
(0.586991641338 1.88359445006e-12 -4.49514661448e-12)
(0.583159971418 1.98209178892e-12 -3.69787623501e-12)
(0.579131800421 2.04765889349e-12 -2.89052638624e-12)
(0.574937854204 2.08346255931e-12 -2.08339963983e-12)
(0.570602105072 2.09281379949e-12 -1.28507912086e-12)
(0.566142643752 2.07899823187e-12 -5.02096714063e-13)
(0.561572398593 2.04540449317e-12 2.59898448111e-13)
(0.556899720256 1.99531809317e-12 9.9732133846e-13)
(0.552128854034 1.93210036291e-12 1.70727911037e-12)
(0.547260321181 1.85850327029e-12 2.38731300551e-12)
(0.542291227588 1.7770972287e-12 3.03633258603e-12)
(0.537215514182 1.69029077447e-12 3.65345117183e-12)
(0.53202415902 1.59997987364e-12 4.23845471833e-12)
(0.526705336522 1.50786382138e-12 4.79141690954e-12)
(0.521244534666 1.41540772775e-12 5.31235415866e-12)
(0.515624626109 1.32347142089e-12 5.80187641618e-12)
(0.509825884181 1.2331938717e-12 6.26027003578e-12)
(0.503825929231 1.14533800104e-12 6.68786654402e-12)
(0.49759958493 1.06002889421e-12 7.08515887977e-12)
(0.491118617374 9.77820159508e-13 7.45216844e-12)
(0.484351321896 8.98728423824e-13 7.78894379446e-12)
(0.477261912392 8.22848413756e-13 8.09534560811e-12)
(0.469809654325 7.50294761506e-13 8.3709497003e-12)
(0.461947663209 6.80996687692e-13 8.61496128663e-12)
(0.45362126167 6.14941489061e-13 8.8264575815e-12)
(0.444765745043 5.52052241554e-13 9.00402379357e-12)
(0.435303339663 4.92254550613e-13 9.14583623862e-12)
(0.425139037395 4.35569328373e-13 9.24950392579e-12)
(0.414154835847 3.81877840322e-13 9.31190393912e-12)
(0.402201679587 3.31248409552e-13 9.32897440151e-12)
(0.389088050249 2.83779437015e-13 9.29537010619e-12)
(0.37456367341 2.39376011376e-13 9.20393482399e-12)
(0.358296283535 1.98217428482e-13 9.04501606943e-12)
(0.33983936543 1.60450010473e-13 8.80529946667e-12)
(0.318591589157 1.26279971633e-13 8.46640883213e-12)
(0.293762723859 9.59575629306e-14 8.00324458015e-12)
(0.264411911208 6.97718574742e-14 7.38392864062e-12)
(0.229753947259 4.79825602153e-14 6.57677574517e-12)
(0.189986085133 3.0716238201e-14 5.57357723203e-12)
(0.147033571973 1.77557862917e-14 4.41686043655e-12)
(0.10354226036 8.58299951866e-15 3.18026456939e-12)
(0.0611058794819 2.81973278561e-15 1.91670097572e-12)
(0.0201690703752 1.49896349118e-16 6.47875612538e-13)