/*--------------------------------*- C++ -*----------------------------------*\
| =========                 |                                                 |
| \\      /  F ield         | OpenFOAM: The Open Source CFD Toolbox           |
|  \\    /   O peration     | Version:  3.0.1                                 |
|   \\  /    A nd           | Web:      www.OpenFOAM.org                      |
|    \\/     M anipulation  |                                                 |
\*---------------------------------------------------------------------------*/
FoamFile
{
    version     2.0;
    format      ascii;
    class       volVectorField;
    location    "50000";
    object      wallShearStress;
}
// * * * * * * * * * * * * * * * * * * * * * * * * * * * * * * * * * * * * * //

dimensions      [0 2 -2 0 0 0 0];

internalField   uniform (0 0 0);

boundaryField
{
    side_walls
    {
        type            calculated;
        value           nonuniform List<vector> 
100
(
(-0.00117202096313 -2.78598756357e-16 -2.93412132811e-15)
(-0.00117006137501 -2.70849003017e-16 -8.56611383307e-15)
(-0.00116638908914 -2.58992833009e-16 -1.37480177803e-14)
(-0.00116121122197 -2.41737116298e-16 -1.84197853912e-14)
(-0.00115470254793 -2.20988593902e-16 -2.25319381855e-14)
(-0.0011470110914 -1.96371024151e-16 -2.60727560405e-14)
(-0.0011382624629 -1.69078532025e-16 -2.90234845457e-14)
(-0.00112856330784 -1.38600356813e-16 -3.13946503129e-14)
(-0.00111800409621 -1.06130406458e-16 -3.31943582022e-14)
(-0.00110666139874 -7.15624486839e-17 -3.44417174084e-14)
(-0.00109459974555 -3.56436115636e-17 -3.51616696371e-14)
(-0.00108187313391 1.71845870382e-18 -3.53835003711e-14)
(-0.00106852623373 3.96918222596e-17 -3.5140230629e-14)
(-0.00105459532733 7.8334708376e-17 -3.44677341453e-14)
(-0.00104010901245 1.16930073254e-16 -3.34019561701e-14)
(-0.001025088691 1.55718270738e-16 -3.1983020346e-14)
(-0.00100954886237 1.93242742658e-16 -3.02506050932e-14)
(-0.000993497236595 2.29885779517e-16 -2.82475174473e-14)
(-0.000976934681495 2.64602188176e-16 -2.60147110632e-14)
(-0.000959855017149 2.9740061007e-16 -2.3596600223e-14)
(-0.000942244672872 3.27136664144e-16 -2.10341494808e-14)
(-0.000924082225236 3.53541956215e-16 -1.83717467327e-14)
(-0.000905337841932 3.75692408661e-16 -1.56524618722e-14)
(-0.000885972666224 3.93313123679e-16 -1.2918411425e-14)
(-0.000865938192069 4.05008675147e-16 -1.02117958014e-14)
(-0.000845175702141 4.10413990647e-16 -7.57481596528e-15)
(-0.000823615873433 4.08713673343e-16 -5.04760673832e-15)
(-0.000801178700268 3.99204608155e-16 -2.66855090724e-15)
(-0.000777773944621 3.80974975561e-16 -4.7473189883e-16)
(-0.0007533023987 3.53789425667e-16 1.50009051819e-15)
(-0.000727658327983 3.16967180184e-16 3.22545978367e-15)
(-0.000700733536415 2.70894104131e-16 4.67537353953e-15)
(-0.00067242352244 2.15636222977e-16 5.8304704785e-15)
(-0.000642636112834 1.5235476643e-16 6.67801541717e-15)
(-0.000611302681337 8.2526260094e-17 7.21432128813e-15)
(-0.000578391483012 8.78106066548e-18 7.44613704372e-15)
(-0.000543921702953 -6.58465533698e-17 7.3913974487e-15)
(-0.000507975605131 -1.37540189078e-16 7.07943516876e-15)
(-0.000470705003605 -2.0228569204e-16 6.55050784357e-15)
(-0.000432327817027 -2.56411262238e-16 5.85312583923e-15)
(-0.00039311153438 -2.96963821514e-16 5.04069630605e-15)
(-0.000353343497557 -3.22250434586e-16 4.16705825292e-15)
(-0.000313292355867 -3.31350605085e-16 3.28291671547e-15)
(-0.000273168674782 -3.23797893324e-16 2.43378120105e-15)
(-0.00023309251606 -2.98823982967e-16 1.65958912293e-15)
(-0.000193069997628 -2.54852204758e-16 9.9593542315e-16)
(-0.000152969273005 -1.90347314639e-16 4.74969212479e-16)
(-0.000112465366612 -1.06310213119e-16 1.23541173983e-16)
(-7.08659932338e-05 -1.16596316871e-17 -4.22890181258e-17)
(-2.65205092252e-05 5.49248000393e-17 -2.20999068892e-17)
(-0.00117202072536 2.93369904032e-15 2.78315546105e-16)
(-0.00117006114577 8.56464558102e-15 2.70991333837e-16)
(-0.00116638887553 1.37473567228e-14 2.5902174714e-16)
(-0.0011612110301 1.8420466561e-14 2.41854451594e-16)
(-0.00115470238287 2.25327632315e-14 2.21108754481e-16)
(-0.00114701095707 2.60736382086e-14 1.96397945914e-16)
(-0.00113826236204 2.90239583025e-14 1.68841708867e-16)
(-0.00112856324197 3.1394773281e-14 1.38542276173e-16)
(-0.00111800406569 3.3194017964e-14 1.06033802696e-16)
(-0.00110666140283 3.44408362822e-14 7.15127767514e-17)
(-0.00109459978255 3.51612168676e-14 3.55449739672e-17)
(-0.0010818732013 3.53829463376e-14 -1.73475220258e-18)
(-0.00106852632836 3.51400509485e-14 -3.93809324749e-17)
(-0.00105459544557 3.44676085366e-14 -7.84593139371e-17)
(-0.00104010915038 3.34017548845e-14 -1.16809514801e-16)
(-0.00102508884456 3.19830567426e-14 -1.55729017763e-16)
(-0.00100954902749 3.02504887938e-14 -1.93217574545e-16)
(-0.000993497409318 2.82477554014e-14 -2.29871761125e-16)
(-0.000976934858083 2.60148923821e-14 -2.64624515042e-16)
(-0.000959855194143 2.35968406926e-14 -2.97290042337e-16)
(-0.00094224484718 2.10345783005e-14 -3.27142609207e-16)
(-0.000924082394156 1.83721280002e-14 -3.53554688715e-16)
(-0.000905338003177 1.56528737279e-14 -3.75792585169e-16)
(-0.00088597281795 1.2918629854e-14 -3.93393355504e-16)
(-0.000865938332876 1.02120325812e-14 -4.05034256749e-16)
(-0.00084517583103 7.57505934265e-15 -4.10478454718e-16)
(-0.000823615989823 5.04759564913e-15 -4.08815387557e-16)
(-0.000801178803947 2.66851024348e-15 -3.99189336864e-16)
(-0.000777774035699 4.74622576862e-16 -3.81005022161e-16)
(-0.000753302477583 -1.50019048046e-15 -3.53741819335e-16)
(-0.000727658395312 -3.22560896537e-15 -3.16979994283e-16)
(-0.000700733593014 -4.67555580786e-15 -2.70869480602e-16)
(-0.000672423569276 -5.83060397014e-15 -2.1567136741e-16)
(-0.000642636150949 -6.67813626782e-15 -1.52314646783e-16)
(-0.000611302711816 -7.21438252602e-15 -8.24897213885e-17)
(-0.00057839150693 -7.44615346259e-15 -8.72745249028e-18)
(-0.000543921721346 -7.39136657978e-15 6.58896068536e-17)
(-0.000507975618973 -7.07936850774e-15 1.37535558995e-16)
(-0.000470705013772 -6.55040528167e-15 2.0229419858e-16)
(-0.000432327824296 -5.85303167433e-15 2.56385057792e-16)
(-0.000393111539419 -5.04062819943e-15 2.96957103591e-16)
(-0.000353343500926 -4.16700151483e-15 3.22238332966e-16)
(-0.000313292358021 -3.28288619312e-15 3.31337402426e-16)
(-0.000273168676084 -2.43375997026e-15 3.23778618211e-16)
(-0.000233092516792 -1.65957867756e-15 2.9881539158e-16)
(-0.000193069998 -9.95925482533e-16 2.54851122708e-16)
(-0.000152969273166 -4.74961188163e-16 1.90343157968e-16)
(-0.000112465366665 -1.23540861512e-16 1.06307934192e-16)
(-7.08659932435e-05 4.22890552984e-17 1.1658217743e-17)
(-2.65205092252e-05 2.20996841193e-17 -5.49248245351e-17)
)
;
    }
    inlet
    {
        type            cyclic;
    }
    outlet
    {
        type            cyclic;
    }
    side_left
    {
        type            symmetryPlane;
    }
    side_bottom
    {
        type            symmetryPlane;
    }
}


// ************************************************************************* //
