/*--------------------------------*- C++ -*----------------------------------*\
| =========                 |                                                 |
| \\      /  F ield         | OpenFOAM: The Open Source CFD Toolbox           |
|  \\    /   O peration     | Version:  3.0.1                                 |
|   \\  /    A nd           | Web:      www.OpenFOAM.org                      |
|    \\/     M anipulation  |                                                 |
\*---------------------------------------------------------------------------*/
FoamFile
{
    version     2.0;
    format      ascii;
    class       volTensorField;
    location    "50000";
    object      grad(Usqr);
}
// * * * * * * * * * * * * * * * * * * * * * * * * * * * * * * * * * * * * * //

dimensions      [0 0 -1 0 0 0 0];

internalField   nonuniform List<tensor> 
2500
(
(0 0 0 -0.0102679512497 2.02775344606e-23 -9.87214638196e-26 -0.0102676621634 -1.02086119173e-25 2.02749788178e-23)
(0 0 0 -0.0301422528145 4.63285697434e-23 -2.81713361526e-25 -0.010271730577 -8.69193325014e-25 1.93241582749e-23)
(0 6.12124776245e-38 3.82577985153e-39 -0.0486272801111 7.14349896615e-23 -4.31666700075e-25 -0.0102810896357 -2.22267396339e-24 1.76554286039e-23)
(0 0 0 -0.0656901330776 9.0022156651e-23 -5.39515813057e-25 -0.0102966724864 -3.99185772341e-24 1.55021505304e-23)
(0 0 0 -0.0814635928061 1.01509253752e-22 -6.01963388295e-25 -0.0103176457602 -6.028376394e-24 1.30925543725e-23)
(5.32530048824e-15 2.81919060473e-37 4.40498531989e-39 -0.096178882146 1.06072859821e-22 -6.27854351707e-25 -0.0103411379208 -8.11403615801e-24 1.06270495289e-23)
(5.58151738506e-15 0 1.15423074239e-39 -0.110107056723 1.04486407895e-22 -6.19781393495e-25 -0.0103627527799 -1.01342610597e-23 8.23796473906e-24)
(0 3.09699686636e-37 0 -0.123521661395 9.74565085897e-23 -5.81221776719e-25 -0.0103773244812 -1.19809578551e-23 6.05676072153e-24)
(0 0 0 -0.136680043742 8.59621000314e-23 -5.17764572715e-25 -0.0103796012706 -1.35891303156e-23 4.15465727955e-24)
(0 0 0 -0.149816561129 7.10825494183e-23 -4.31838552435e-25 -0.0103647571103 -1.49654947941e-23 2.58936264066e-24)
(0 0 0 -0.163142034799 5.37779554926e-23 -3.31172388287e-25 -0.0103287333607 -1.59990929004e-23 1.38861523028e-24)
(0 0 0 -0.176845987498 3.48999604762e-23 -2.18770443342e-25 -0.0102684428247 -1.6738528023e-23 5.61986391824e-25)
(7.39948103469e-15 3.9172526431e-37 0 -0.191099895532 1.53145185893e-23 -9.81683597539e-26 -0.0101818672763 -1.71583605673e-23 1.0705301515e-25)
(0 0 0 -0.206060692641 -4.15021975161e-24 2.68045018266e-26 -0.0100680719107 -1.72564562955e-23 7.67552623222e-27)
(0 0 0 -0.221874277615 -2.30875923365e-23 1.54007112958e-25 -0.0099271536897 -1.7112863842e-23 2.41246979443e-25)
(0 0 0 -0.238679009226 -4.10056568861e-23 2.80567997666e-25 -0.00976013796894 -1.67297620582e-23 7.78850364875e-25)
(0 0 0 -0.256609258779 -5.74981395725e-23 4.04198646961e-25 -0.00956883640905 -1.61558576193e-23 1.58735622519e-24)
(0 0 0 -0.275799112984 -7.23233197884e-23 5.23064802941e-25 -0.00935567962655 -1.54197153326e-23 2.63198751986e-24)
(0 0 0 -0.296386319635 -8.52789491536e-23 6.35455952511e-25 -0.0091235377903 -1.45579315524e-23 3.87720469181e-24)
(0 0 0 -0.318516565875 -9.62958459697e-23 7.39583247599e-25 -0.00887554161089 -1.36117715291e-23 5.2870505034e-24)
(0 0 0 -0.342348184365 -1.0530005313e-22 8.34621402147e-25 -0.00861491446028 -1.25998438299e-23 6.82700346208e-24)
(0 0 0 -0.368057401931 -1.12291635392e-22 9.18680837986e-25 -0.00834482409091 -1.15611960313e-23 8.46342207853e-24)
(0 0 0 -0.395844280303 -1.17341216297e-22 9.91340300734e-25 -0.00806825929287 -1.0508458211e-23 1.01640736392e-23)
(0 0 0 -0.425939550236 -1.2054015393e-22 1.05001919755e-24 -0.00778793425318 -9.47854156899e-24 1.19001171124e-23)
(0 0 0 -0.458612612956 -1.22011045711e-22 1.09455589846e-24 -0.00750622057325 -8.47366091749e-24 1.36409101434e-23)
(0 0 0 -0.494181078364 -1.21859634045e-22 1.12434693386e-24 -0.00722510489014 -7.499541651e-24 1.53602146427e-23)
(0 0 0 -0.533022333448 -1.20228853028e-22 1.13678808461e-24 -0.00694616854958 -6.58101048306e-24 1.70334129373e-23)
(0 0 0 -0.575587795429 -1.17273796941e-22 1.13024959034e-24 -0.00667058491065 -5.72344236686e-24 1.86336774167e-23)
(0 0 0 -0.622420712081 -1.13145999089e-22 1.10361450096e-24 -0.00639912943197 -4.92710343293e-24 2.01391680627e-23)
(0 0 0 -0.674178632881 -1.08012392703e-22 1.05546311742e-24 -0.00613219757227 -4.19154384905e-24 2.15282503239e-23)
(0 0 0 -0.73166199769 -1.02025240952e-22 9.80432524804e-25 -0.00586982628562 -3.53567359635e-24 2.27786782969e-23)
(0 0 0 -0.795850647329 -9.53400980059e-23 8.76925823549e-25 -0.00561171421741 -2.94848035258e-24 2.38692913132e-23)
(0 0 0 -0.867950371654 -8.81000008189e-23 7.41670230467e-25 -0.00535723661225 -2.42634969694e-24 2.47779858427e-23)
(0 0 0 -0.949451622788 -8.04565267022e-23 5.69248742053e-25 -0.00510545013392 -1.97074340747e-24 2.54827623074e-23)
(0 0 0 -1.0422015552 -7.25505534601e-23 3.54564607738e-25 -0.0048550820704 -1.57580173035e-24 2.59609039905e-23)
(0 0 0 -1.14848688265 -6.450865721e-23 9.06166368301e-26 -0.00460449608762 -1.23747646421e-24 2.61871522148e-23)
(0 0 0 -1.27111425375 -5.64650498819e-23 -2.32048812043e-25 -0.00435162268378 -9.53018764834e-25 2.61348534821e-23)
(0 0 0 -1.4134457425 -4.85439685289e-23 -6.23695133432e-25 -0.00409383447503 -7.15319004606e-25 2.57729299235e-23)
(0 0 0 -1.57927110077 -4.08649737956e-23 -1.09909724958e-24 -0.00382773259339 -5.21888652319e-25 2.5066464743e-23)
(0 0 0 -1.77220419456 -3.35428731074e-23 -1.67507223066e-24 -0.0035487869674 -3.68849593933e-25 2.39744801952e-23)
(0 0 0 -1.99381341893 -2.66878441105e-23 -2.36649160731e-24 -0.00325074483365 -2.49841779542e-25 2.24513021197e-23)
(0 0 0 -2.23865920529 -2.0420266789e-23 -3.17864004515e-24 -0.00292474496376 -1.60801106242e-25 2.04499311986e-23)
(0 0 0 -2.48305669601 -1.48609125275e-23 -4.07907305023e-24 -0.00255847351356 -9.70993208123e-26 1.79358744194e-23)
(0 0 0 -2.66729963662 -1.01270040596e-23 -4.94561745601e-24 -0.00213772239872 -5.39575133071e-26 1.49237582694e-23)
(0 0 0 -2.69243731188 -6.32512148296e-24 -5.52758209331e-24 -0.00165810263978 -2.67251888705e-26 1.15453766031e-23)
(0 0 0 -2.47638218925 -3.51705559667e-24 -5.54576997139e-24 -0.00115186074589 -1.1383506511e-26 8.10884594497e-24)
(0 0 0 -2.03727166445 -1.67057514461e-24 -4.91881328135e-24 -0.000692587461225 -3.89591451885e-27 5.01960058643e-24)
(0 0 0 -1.47732774566 -6.28256556776e-25 -3.80831580832e-24 -0.000342510050255 -9.23881044665e-28 2.58345323798e-24)
(0 0 0 -0.885424336013 -1.58039418749e-25 -2.41433485642e-24 -0.000118703627183 -1.00791178146e-28 9.34344424899e-25)
(0 0 0 -0.368052388339 -1.78784425369e-26 -1.05214867805e-24 -1.28506389873e-05 -3.03560818275e-31 1.06280196231e-25)
(0 0 0 -0.0102720196633 1.93109412311e-23 -8.56630840785e-25 -0.0301414956576 -2.85703949668e-25 4.63515266567e-23)
(0 0 0 -0.0301561305804 4.41428617036e-23 -2.43105658449e-24 -0.0301553710954 -2.44570740832e-24 4.41561419712e-23)
(0 0 0 -0.048654207866 6.80728676795e-23 -3.7026307936e-24 -0.0301863102634 -6.29297898725e-24 4.03296469285e-23)
(0 0 0 -0.0657314000113 8.5733797275e-23 -4.62511288775e-24 -0.0302367536163 -1.13098716691e-23 3.54128021364e-23)
(0 0 0 -0.0815160915036 9.66474566696e-23 -5.1754204855e-24 -0.030304176903 -1.70328555065e-23 2.990539663e-23)
(5.58151738504e-15 0 1.84676918781e-38 -0.0962345719798 1.01000608961e-22 -5.39816646388e-24 -0.030380259758 -2.29303200705e-23 2.42533125256e-23)
(0 0 0 -0.11015371426 9.94829289584e-23 -5.32216269277e-24 -0.0304522859368 -2.86665665245e-23 1.87951021473e-23)
(-6.13152648209e-15 -3.24600309206e-37 -1.01437596627e-38 -0.123544142854 9.27737732712e-23 -4.98007005121e-24 -0.0305052561404 -3.3976804682e-23 1.38058342227e-23)
(0 0 0 -0.136661589061 8.17230853306e-23 -4.42858179e-24 -0.0305238253346 -3.86029840841e-23 9.46882824536e-24)
(6.73573410401e-15 3.56586794377e-37 2.78583433107e-39 -0.149739955561 6.75003803853e-23 -3.70044167607e-24 -0.030493769205 -4.24496624692e-23 5.89749156117e-24)
(0 0 0 -0.162990591161 5.10172610439e-23 -2.83936169878e-24 -0.0304029787341 -4.53906948705e-23 3.15706286337e-24)
(0 3.91725264304e-37 7.65088406844e-40 -0.176604358428 3.30129797095e-23 -1.87660873479e-24 -0.0302420697115 -4.74503608529e-23 1.27530248735e-24)
(7.75549325837e-15 8.21144789006e-37 2.00474802003e-40 -0.190754726237 1.44381252663e-23 -8.43842274747e-25 -0.0300046930223 -4.85965638218e-23 2.40345668595e-25)
(0 0 0 -0.205601114854 -4.05811668973e-24 2.30023913063e-25 -0.0296876099663 -4.8933650198e-23 1.84834940663e-26)
(0 0 0 -0.221292239519 -2.20834312461e-23 1.32126710516e-24 -0.0292905789734 -4.85469033309e-23 5.55690841213e-25)
(0 0 0 -0.237969436497 -3.91046560608e-23 2.40634506701e-24 -0.0288160911503 -4.74791011448e-23 1.78548720228e-24)
(0 0 0 -0.255770047855 -5.47754708546e-23 3.46605166041e-24 -0.0282689894157 -4.58702702681e-23 3.632207349e-24)
(0 0 0 -0.274830967432 -6.88462558398e-23 4.48467130287e-24 -0.0276560072292 -4.37960312373e-23 6.01709053505e-24)
(0 0 0 -0.295292450002 -8.11586995823e-23 5.44670054482e-24 -0.0269852630933 -4.1371449662e-23 8.85797225519e-24)
(0 0 0 -0.317302281388 -9.1620157541e-23 6.33988665846e-24 -0.0262657462844 -3.86867707298e-23 1.20741264225e-23)
(0 0 0 -0.341020409781 -1.00170403145e-22 7.15283025431e-24 -0.0255068255807 -3.58271604678e-23 1.55867953098e-23)
(0 0 0 -0.366624153466 -1.06808991253e-22 7.87431342994e-24 -0.0247178066926 -3.28747713766e-23 1.93191316528e-23)
(0 0 0 -0.39431413191 -1.11621153597e-22 8.49785019088e-24 -0.0239075566279 -2.98807682041e-23 2.31998587513e-23)
(6.50233326841e-15 0 2.1514416064e-38 -0.424321116284 -1.1468283132e-22 9.00974119532e-24 -0.0230842051011 -2.69215336354e-23 2.71575780433e-23)
(0 0 0 -0.456914065798 -1.16040708418e-22 9.39655892739e-24 -0.0222549254069 -2.40530125046e-23 3.11313547802e-23)
(0 0 0 -0.492409711427 -1.15877026328e-22 9.65483680925e-24 -0.0214257906935 -2.12839374907e-23 3.50558409193e-23)
(0 0 0 -0.531184172485 -1.14345228567e-22 9.76235634287e-24 -0.0206016967836 -1.86753141349e-23 3.8874825592e-23)
(0 0 0 -0.573687252962 -1.11531714402e-22 9.70593408481e-24 -0.0197863393517 -1.62416376973e-23 4.25312342513e-23)
(-4.11225507825e-15 -2.17700971174e-37 -2.72126213968e-38 -0.620460272493 -1.07571968068e-22 9.47922854457e-24 -0.0189822318572 -1.39738758917e-23 4.59743309167e-23)
(-4.31010855827e-15 -2.28175247193e-37 -2.85219058992e-38 -0.672158550499 -1.02708079733e-22 9.0562687141e-24 -0.0181907499737 -1.19007209491e-23 4.91484828142e-23)
(0 0 0 -0.729579981836 -9.70582888095e-23 8.41588841708e-24 -0.0174121887952 -1.00241329236e-23 5.20062703243e-23)
(0 0 0 -0.793701499181 -9.06946410982e-23 7.5293538896e-24 -0.0166458192268 -8.34674582306e-24 5.44986173619e-23)
(0 0 0 -0.865725525982 -8.3809536153e-23 6.36282244414e-24 -0.015889930468 -6.86562594526e-24 5.65763087874e-23)
(0 0 0 -0.947138526307 -7.65449152566e-23 4.88164596202e-24 -0.0151418441982 -5.56644074485e-24 5.81882018591e-23)
(0 0 0 -1.03978277914 -6.90165497429e-23 3.03413952331e-24 -0.014397883518 -4.44378992198e-24 5.92819739375e-23)
(0 0 0 -1.14593880716 -6.13634092706e-23 7.60716987877e-25 -0.0136532732368 -3.48483938161e-24 5.98007508494e-23)
(0 0 0 -1.26840505384 -5.37013135805e-23 -2.01424877299e-24 -0.012901935682 -2.67637680188e-24 5.96816804382e-23)
(-3.1385100185e-15 0 -4.15378342337e-38 -1.41053220993 -4.61529808882e-23 -5.3893930596e-24 -0.0121361232435 -2.00720929055e-24 5.88549678484e-23)
(0 0 0 -1.57609349008 -3.88517137082e-23 -9.48323302783e-24 -0.0113457872501 -1.46312171079e-24 5.72383376092e-23)
(0 0 0 -1.76867774009 -3.18863412871e-23 -1.44347093251e-23 -0.0105175137131 -1.03095467228e-24 5.47392769421e-23)
(0 0 0 -1.98981477286 -2.53606487091e-23 -2.03743971485e-23 -0.00963277263865 -6.96611971126e-25 5.12534792119e-23)
(0 0 0 -2.23400848836 -1.9399528337e-23 -2.73415681832e-23 -0.00866529936373 -4.47205112303e-25 4.66738528089e-23)
(1.98488038507e-15 3.28370914553e-39 2.62696731642e-38 -2.47751361183 -1.41130195459e-23 -3.50486850785e-23 -0.00757861736651 -2.68652471775e-25 4.09231887709e-23)
(0 0 0 -2.6606537217 -9.61110195906e-24 -4.24427156712e-23 -0.00633073620867 -1.48115296137e-25 3.40372455854e-23)
(0 0 0 -2.68481711217 -5.99841278647e-24 -4.73790573377e-23 -0.00490899630321 -7.30929143727e-26 2.63208228958e-23)
(0 0 0 -2.46857408408 -3.3337182031e-24 -4.74769742357e-23 -0.00340936786235 -3.09345039063e-26 1.84794115817e-23)
(0 0 0 -2.03042546744 -1.58271730595e-24 -4.20640077005e-23 -0.00204969364529 -1.05120629076e-26 1.14362322369e-23)
(0 0 0 -1.47224997773 -5.94951535963e-25 -3.25365273962e-23 -0.00101360982053 -2.47099905401e-27 5.88474724805e-24)
(0 0 0 -0.882377091649 -1.4958809888e-25 -2.06088248609e-23 -0.000351286760813 -2.67075192235e-28 2.12787945576e-24)
(0 0 0 -0.366791336012 -1.69137628575e-26 -8.97348955932e-24 -3.80300066446e-05 -7.44613415678e-31 2.419833068e-25)
(0 0 0 -0.0102813765006 1.76396492992e-23 -2.22811953001e-24 -0.0486263116804 -4.30342867622e-25 7.14758725608e-23)
(0 0 0 -0.0301870675271 4.03201147492e-23 -6.30147957827e-24 -0.0486532296199 -3.69700097512e-24 6.80845929205e-23)
(0 0 0 -0.0487123257257 6.21751103621e-23 -9.5617233965e-24 -0.0487113397642 -9.5509674413e-24 6.21804010478e-23)
(0 0 0 -0.0658189650116 7.82800972438e-23 -1.19305843403e-23 -0.0488040264304 -1.71880442522e-23 5.45796375353e-23)
(0 0 0 -0.0816276714374 8.82088285054e-23 -1.33698009266e-23 -0.0489272617887 -2.58477378875e-23 4.60769293027e-23)
(0 0 0 -0.0963559606731 9.21272469895e-23 -1.39415450068e-23 -0.0490681496152 -3.48157332614e-23 3.73404670614e-23)
(6.13152648219e-15 3.24600309211e-37 0 -0.110263118816 9.06175831359e-23 -1.37332716455e-23 -0.0492068840575 -4.35503246521e-23 2.89208509024e-23)
(0 0 0 -0.123614310426 8.43918888068e-23 -1.28434684908e-23 -0.0493198731848 -5.16552563768e-23 2.12209714132e-23)
(0 0 0 -0.136662051124 7.42895891838e-23 -1.14092631225e-23 -0.0493826728855 -5.87307988614e-23 1.45312227071e-23)
(0 0 0 -0.149639059166 6.12900013107e-23 -9.53525761523e-24 -0.0493722552873 -6.45480405194e-23 9.02949193322e-24)
(0 0 0 -0.162757245864 4.62241479072e-23 -7.30968163345e-24 -0.0492685884614 -6.90534380702e-23 4.81896478492e-24)
(0 0 0 -0.176209512042 2.98356655469e-23 -4.82301025918e-24 -0.0490556467612 -7.22027806188e-23 1.9348378241e-24)
(0 0 0 -0.190172586222 1.28752878187e-23 -2.1602086582e-24 -0.0487219761561 -7.3988034013e-23 3.57754290662e-25)
(0 0 0 -0.204810114442 -4.03151761461e-24 6.08255010765e-25 -0.0482609072116 -7.45672498878e-23 3.15573794378e-26)
(0 0 0 -0.220275733475 -2.03948187317e-23 3.41710819237e-24 -0.0476704805535 -7.40071855634e-23 8.7123439323e-25)
(0 0 0 -0.236716108782 -3.58452598886e-23 6.20898011976e-24 -0.0469531343255 -7.24315980789e-23 2.77276899822e-24)
(0 0 0 -0.254274022718 -5.00695820125e-23 8.93623487048e-24 -0.0461151991629 -7.00098408873e-23 5.61952738493e-24)
(0 0 0 -0.273091630946 -6.28238797496e-23 1.15563159953e-23 -0.0451662483243 -6.68853739858e-23 9.29010340541e-24)
(0 0 0 -0.293314007365 -7.39793607918e-23 1.40311838516e-23 -0.0441183533652 -6.32219829692e-23 1.36577292878e-23)
(0 0 0 -0.315093092721 -8.34504247893e-23 1.63305111426e-23 -0.0429852979502 -5.91485938364e-23 1.86014762643e-23)
(0 3.13352539888e-37 1.9584533743e-38 -0.33859215882 -9.11919339671e-23 1.842356852e-23 -0.0417817996155 -5.48058937615e-23 2.39959939151e-23)
(0 0 0 -0.363990909456 -9.71667717076e-23 2.02854463391e-23 -0.04052278341 -5.03057243003e-23 2.97323190139e-23)
(-6.50233326831e-15 0 0 -0.391491364021 -1.01476618808e-22 2.18861869488e-23 -0.039222742063 -4.57633528207e-23 3.56951896326e-23)
(0 0 0 -0.421324712431 -1.04266932266e-22 2.3206104389e-23 -0.0378952052598 -4.1249595487e-23 4.17743189446e-23)
(0 0 0 -0.453759396403 -1.05510755063e-22 2.4214659992e-23 -0.0365523292388 -3.68488112158e-23 4.78796643592e-23)
(-3.74337830515e-15 -1.98172797406e-37 -4.95431993515e-38 -0.489110764544 -1.05366768505e-22 2.48778449173e-23 -0.0352046064684 -3.26299093498e-23 5.39135779682e-23)
(3.92348396765e-15 2.07707511789e-37 5.19268779472e-38 -0.527752771281 -1.04022214362e-22 2.51664548319e-23 -0.0338606862519 -2.86290500151e-23 5.97808466907e-23)
(0 0 0 -0.570132351807 -1.01436266505e-22 2.50445706638e-23 -0.0325272900776 -2.48795413989e-23 6.54060619295e-23)
(-4.31010855851e-15 -1.14087623603e-37 -5.70438118015e-38 -0.616787314247 -9.78219723927e-23 2.44600923541e-23 -0.0312092018419 -2.14182407641e-23 7.07025495119e-23)
(-4.51748138955e-15 -1.19576736736e-37 -5.97883683681e-38 -0.66836885247 -9.34006082782e-23 2.3364215776e-23 -0.0299093105687 -1.82560553818e-23 7.55895580555e-23)
(-4.73483157763e-15 -1.25329948311e-37 -6.26649741555e-38 -0.725670104111 -8.82486269872e-23 2.17118745404e-23 -0.0286286825535 -1.53822996271e-23 7.99926173962e-23)
(0 0 0 -0.789662531569 -8.25083397696e-23 1.94277224567e-23 -0.0273666403341 -1.28073632894e-23 8.38325857521e-23)
(0 0 0 -0.861542203819 -7.62619715135e-23 1.64258155569e-23 -0.0261208252987 -1.05280702935e-23 8.703660472e-23)
(0 0 0 -0.942788047077 -6.9650779433e-23 1.26056064302e-23 -0.0248872191543 -8.53231245126e-24 8.95256203689e-23)
(0 3.78118148194e-38 7.56236296387e-38 -1.03523312744 -6.28168339184e-23 7.84379307944e-24 -0.0236600948844 -6.80430790079e-24 9.12171625296e-23)
(0 0 0 -1.14114628166 -5.58477621221e-23 1.97892924413e-24 -0.022431857497 -5.33010693201e-24 9.20248873262e-23)
(0 0 0 -1.26331048825 -4.88770553702e-23 -5.18420862011e-24 -0.0211927146754 -4.08876087003e-24 9.18490054716e-23)
(0 -2.17681748124e-38 -8.70726992495e-38 -1.40505501444 -4.20146003181e-23 -1.39005600261e-23 -0.019930079911 -3.06285364074e-24 9.05809918711e-23)
(0 0 0 -1.57012199101 -3.53599086179e-23 -2.44794482763e-23 -0.0186275426058 -2.23128772991e-24 8.80944365174e-23)
(0 0 0 -1.76205328638 -2.90139643237e-23 -3.72681023086e-23 -0.0172631268168 -1.56969779651e-24 8.42455722523e-23)
(0 0 0 -1.98230635855 -2.30740953878e-23 -5.26063131858e-23 -0.0158064249664 -1.05895736467e-24 7.88730447932e-23)
(0 0 0 -2.22527931031 -1.76447304177e-23 -7.05872627067e-23 -0.0142143201635 -6.78588234406e-25 7.18119977816e-23)
(0 0 -5.50671789468e-38 -2.46711451772 -1.28291643949e-23 -9.04572100122e-23 -0.012426998682 -4.06913612538e-25 6.29462929548e-23)
(0 0 0 -2.6481939391 -8.73572936199e-24 -1.09483141803e-22 -0.0103759134148 -2.23951828395e-25 5.23338356322e-23)
(0 0 0 -2.67054357446 -5.45219279094e-24 -1.22131449703e-22 -0.00804138711129 -1.10202597145e-25 4.04529578541e-23)
(0 0 0 -2.45396224141 -3.02917292811e-24 -1.2230298918e-22 -0.00558220555516 -4.65517759539e-26 2.83936747305e-23)
(0 0 0 -2.01762231619 -1.43844967689e-24 -1.08309605124e-22 -0.00335510912563 -1.57919626512e-26 1.75711420326e-23)
(0 0 0 -1.4627568683 -5.40954681769e-25 -8.37578738962e-23 -0.00165903739274 -3.70531725963e-27 9.042836608e-24)
(0 0 0 -0.876680532081 -1.36085733121e-25 -5.30456466092e-23 -0.000574973313293 -3.99084745223e-28 3.27052466911e-24)
(-5.64585454383e-18 0 0 -0.364433900777 -1.53958744441e-26 -2.30945737566e-23 -6.22471923997e-05 -1.11820788946e-30 3.7204571306e-25)
(0 0 0 -0.0102969525357 1.54950904442e-23 -4.00666405336e-24 -0.0656892306701 -5.37183937e-25 9.00307167492e-23)
(0 0 0 -0.0302374967033 3.54085044782e-23 -1.13289649433e-23 -0.0657304754491 -4.61628300611e-24 8.57407318586e-23)
(0 0 0 -0.0488050050308 5.45798142042e-23 -1.72055159183e-23 -0.0658180132709 -1.19182350772e-23 7.82870224975e-23)
(0 0 0 -0.0659572709048 6.86782232777e-23 -2.14730307619e-23 -0.0659563057117 -2.14515301875e-23 6.86789016723e-23)
(0 0 0 -0.0818051491988 7.7332034947e-23 -2.40607429984e-23 -0.066140729033 -3.22620438655e-23 5.79345079223e-23)
(0 0 0 -0.0965546535423 8.0684601285e-23 -2.50820167033e-23 -0.0663553598242 -4.34687046216e-23 4.69019385479e-23)
(0 0 0 -0.11045482907 7.92380291809e-23 -2.46947358535e-23 -0.0665751235774 -5.43804984307e-23 3.62758772427e-23)
(0 0 0 -0.123763150839 7.36584980758e-23 -2.30947570625e-23 -0.0667695584953 -6.44660155356e-23 2.65685516552e-23)
(0 0 0 -0.136727232072 6.47203340247e-23 -2.05042972091e-23 -0.0669064766327 -7.32848627566e-23 1.81418704397e-23)
(0 0 0 -0.149577468644 5.32430829124e-23 -1.71125016413e-23 -0.0669548745393 -8.05870047728e-23 1.12294670243e-23)
(0 0 0 -0.162525717648 3.99504656457e-23 -1.30953720158e-23 -0.0668870260504 -8.62534108051e-23 5.9609808669e-24)
(0 0 0 -0.175766795065 2.55555435337e-23 -8.61944444273e-24 -0.0666798867763 -9.0234386041e-23 2.36535307822e-24)
(0 0 0 -0.189481037399 1.07146775331e-23 -3.83342706044e-24 -0.0663159576813 -9.25526040426e-23 4.2135852348e-25)
(0 0 0 -0.203837112319 -4.0444249339e-24 1.1335155317e-24 -0.0657837189672 -9.33098414177e-23 4.7702616194e-26)
(0 0 0 -0.218994786809 -1.82976702427e-23 6.16744103676e-24 -0.0650777080848 -9.26494014224e-23 1.13187200079e-24)
(0 0 0 -0.235107624269 -3.17248770919e-23 1.11667986237e-23 -0.0641982940602 -9.07516162785e-23 3.54378324955e-24)
(0 0 0 -0.252325701106 -4.40660019227e-23 1.60478587354e-23 -0.0631511928646 -8.77771249289e-23 7.13107622738e-24)
(5.38811146939e-15 2.85244246128e-37 0 -0.270798477399 -5.51242002468e-23 2.07343470911e-23 -0.0619467698324 -8.39257901149e-23 1.17431708968e-23)
(0 0 0 -0.290677966256 -6.477647702e-23 2.5164494222e-23 -0.0605991825347 -7.93789838958e-23 1.72195974785e-23)
(0 0 0 -0.312122342182 -7.29518645616e-23 2.92759398183e-23 -0.0591254227061 -7.43272745988e-23 2.34108822998e-23)
(0 0 0 -0.335300122425 -7.96192658198e-23 3.30275629379e-23 -0.0575443189015 -6.89112016354e-23 3.01584761902e-23)
(0 0 0 -0.360395058572 -8.47884794453e-23 3.63710482708e-23 -0.0558755596181 -6.32842436283e-23 3.73279207226e-23)
(0 0 0 -0.387611890033 -8.85095830246e-23 3.92339048617e-23 -0.0541387891129 -5.76297485593e-23 4.47734413957e-23)
(0 0 0 -0.41718314587 -9.08455507682e-23 4.160002576e-23 -0.0523528168306 -5.19928866726e-23 5.23730565125e-23)
(0 0 0 -0.449377239648 -9.18887942585e-23 4.34215306823e-23 -0.0505349671471 -4.64705269981e-23 5.99977559985e-23)
(0 0 0 -0.48450818778 -9.17412424286e-23 4.46107554353e-23 -0.0487005815934 -4.11902771303e-23 6.75313593487e-23)
(0 0 0 -0.522947401051 -9.04989705242e-23 4.51360284937e-23 -0.0468626715438 -3.61669233797e-23 7.48699953261e-23)
(0 0 0 -0.565138159982 -8.82808281487e-23 4.49326106336e-23 -0.045031708273 -3.14461323991e-23 8.19016260949e-23)
(0 0 0 -0.611613593024 -8.51885890263e-23 4.38967754255e-23 -0.0432155284567 -2.70900901307e-23 8.85254416765e-23)
(0 0 0 -0.663019238531 -8.13303726574e-23 4.19551658299e-23 -0.0414193275036 -2.30963240701e-23 9.46461831651e-23)
(0 0 0 -0.720141591794 -7.6835113211e-23 3.89994700883e-23 -0.0396457102798 -1.94763057787e-23 1.00168858984e-22)
(0 0 0 -0.783944387128 -7.18154754785e-23 3.49072944261e-23 -0.0378947666982 -1.62287090534e-23 1.04991517699e-22)
(0 0 0 -0.855614655674 -6.63855491105e-23 2.95349766854e-23 -0.036164138449 -1.33437445729e-23 1.09020015883e-22)
(0 0 0 -0.936620570554 -6.06395024549e-23 2.26885061107e-23 -0.0344490401979 -1.08171961363e-23 1.12155035432e-22)
(0 0 0 -1.02878204966 -5.46838790108e-23 1.41484077433e-23 -0.0327421918716 -8.62737961113e-24 1.14291887109e-22)
(0 0 0 -1.13435127256 -4.86258415239e-23 3.62087461344e-24 -0.0310336045621 -6.75836589977e-24 1.15317689056e-22)
(-3.28951357166e-15 -2.17681748096e-38 -1.74145398477e-37 -1.25608921834 -4.25573380501e-23 -9.25518346138e-24 -0.0293101351397 -5.18728678254e-24 1.15109659188e-22)
(0 0 0 -1.3972947438 -3.65861964578e-23 -2.49253043696e-23 -0.0275546728323 -3.88648327014e-24 1.13527076146e-22)
(0 0 0 -1.56166594178 -3.07927924572e-23 -4.39449125435e-23 -0.0257447275457 -2.8304609622e-24 1.10411731453e-22)
(0 0 0 -1.75267823884 -2.52568845357e-23 -6.69460617382e-23 -0.0238500351044 -1.99129586217e-24 1.05581853981e-22)
(0 0 0 -1.97168695098 -2.0081262721e-23 -9.45323739801e-23 -0.0218286118378 -1.34378397398e-24 9.88315693494e-23)
(0 0 0 -2.21294132055 -1.53524806294e-23 -1.26851714167e-22 -0.0196208859942 -8.60765397782e-25 8.99565289923e-23)
(0 0 0 -2.45242725533 -1.11573335598e-23 -1.62532973903e-22 -0.0171443457033 -5.16539199549e-25 7.88135575383e-23)
(0 0 0 -2.63061451811 -7.59122571835e-24 -1.96625323041e-22 -0.0143050417843 -2.8479316023e-25 6.54860404983e-23)
(0 0 0 -2.65043351699 -4.73419519432e-24 -2.19179373249e-22 -0.0110779694609 -1.40065129716e-25 5.05870547782e-23)
(0 0 0 -2.43340570131 -2.62962739158e-24 -2.19336423246e-22 -0.00768496170396 -5.92231900456e-26 3.54914312601e-23)
(3.28922310705e-16 1.36039079226e-40 6.96520085635e-38 -1.99962927271 -1.24851226356e-24 -1.94165795025e-22 -0.00461722041556 -2.01108752236e-26 2.1961954648e-23)
(0 0 0 -1.44942196601 -4.69518438568e-25 -1.5014481582e-22 -0.00228288718375 -4.71625609375e-27 1.13048319455e-23)
(0 0 0 -0.868679490472 -1.18115037786e-25 -9.510328682e-23 -0.000791182740785 -5.07472076606e-28 4.08997661535e-24)
(0 0 0 -0.361122775391 -1.33678094838e-26 -4.14133152817e-23 -8.56563488796e-05 -1.41673688828e-30 4.65476124933e-25)
(0 0 0 -0.0103179130708 1.30867764642e-23 -6.03566343986e-24 -0.0814629757649 -6.01068664456e-25 1.01498755527e-22)
(0 0 0 -0.0303048895338 2.99049520172e-23 -1.70432626205e-23 -0.0815154371537 -5.17175652133e-24 9.6656839233e-23)
(0 0 0 -0.0489282098368 4.60838245045e-23 -2.58647707172e-23 -0.0816269645877 -1.33613657412e-23 8.82136031617e-23)
(0 0 0 -0.0661416813911 5.79331403758e-23 -3.22800841632e-23 -0.0818043989172 -2.404889706e-23 7.73330606168e-23)
(0 0 0 -0.0820451991421 6.51531724718e-23 -3.61683381447e-23 -0.0820444315828 -3.61623115053e-23 6.51601437906e-23)
(0 0 0 -0.0968314584503 6.78690750285e-23 -3.76894894392e-23 -0.082330433304 -4.87210930776e-23 5.26648333361e-23)
(0 0 0 -0.110737210178 6.64957377057e-23 -3.70865879806e-23 -0.0826344585334 -6.09424801658e-23 4.06415148364e-23)
(0 0 0 -0.124010246145 6.16442396987e-23 -3.46602759065e-23 -0.082921342206 -7.2222082759e-23 2.96749291704e-23)
(0 0 0 -0.13689149137 5.39716447354e-23 -3.07392127266e-23 -0.0831528712474 -8.20885673327e-23 2.01829397467e-23)
(0 0 0 -0.149607500715 4.41724400522e-23 -2.56107688922e-23 -0.0832912104497 -9.02842862758e-23 1.24260791759e-23)
(0 0 0 -0.16236885107 3.2892591479e-23 -1.95558715846e-23 -0.0833014482912 -9.66346562288e-23 6.53749618989e-24)
(0 0 0 -0.175371362658 2.07315081741e-23 -1.28245258838e-23 -0.083153384316 -1.01114381053e-22 2.55066475631e-24)
(0 0 0 -0.188798414683 8.2441120408e-24 -5.63850555242e-24 -0.0828227186163 -1.03780425737e-22 4.26121020314e-25)
(0 0 0 -0.20282351284 -4.13136016858e-24 1.79652959781e-24 -0.0822917674797 -1.04700156574e-22 6.95315365162e-26)
(0 0 0 -0.217612784161 -1.60596708078e-23 9.32225097756e-24 -0.0815497866167 -1.03983748176e-22 1.34756223021e-24)
(0 0 0 -0.233327350188 -2.72461468922e-23 1.67856441622e-23 -0.0805929518773 -1.01898124486e-22 4.10140297758e-24)
(0 0 0 -0.250125662967 -3.7471862175e-23 2.40631971856e-23 -0.0794240342536 -9.86374222182e-23 8.16364966264e-24)
(0 0 0 -0.268165949592 -4.65974929863e-23 3.10467545906e-23 -0.0780518046774 -9.43736252365e-23 1.33527674686e-23)
(0 0 0 -0.287608932286 -5.45558117184e-23 3.76441973951e-23 -0.0764902116054 -8.93308598352e-23 1.94978509958e-23)
(0 0 0 -0.308620993182 -6.12586819858e-23 4.37647000029e-23 -0.0747573840776 -8.37142106285e-23 2.64171879089e-23)
(-6.5023332683e-15 -3.44230657017e-37 -8.60576642543e-38 -0.331377949922 -6.66647635308e-23 4.93429231572e-23 -0.0728745224082 -7.76910664364e-23 3.39570588187e-23)
(0 0 0 -0.356069606033 -7.09151432168e-23 5.43092025835e-23 -0.0708647437999 -7.14248863977e-23 4.19400089037e-23)
(3.57154030711e-15 1.89075769536e-37 9.45378847679e-38 -0.382905247894 -7.39411561693e-23 5.85888936622e-23 -0.0687519491502 -6.50760655822e-23 5.02328360223e-23)
(-3.74337830511e-15 -1.98172797404e-37 -9.90863987021e-38 -0.412120283271 -7.57505698947e-23 6.21249159313e-23 -0.0665597711002 -5.87512464974e-23 5.86890414193e-23)
(0 0 0 -0.443984263791 -7.65853970896e-23 6.48224920028e-23 -0.0643106508512 -5.25815754593e-23 6.71675863864e-23)
(4.11225507827e-15 1.08850485588e-37 1.08850485588e-37 -0.47881060909 -7.64514822677e-23 6.66285877329e-23 -0.0620250756873 -4.66243483926e-23 7.55443822116e-23)
(4.31010855843e-15 1.14087623601e-37 2.28175247202e-37 -0.516968461678 -7.53645123639e-23 6.74402749545e-23 -0.0597209920734 -4.09617220028e-23 8.37079485651e-23)
(0 0 0 -0.55889725699 -7.34648240104e-23 6.71400314372e-23 -0.057413392986 -3.56564888423e-23 9.15326677222e-23)
(0 0 0 -0.605124797319 -7.08572616231e-23 6.56278950756e-23 -0.0551140632438 -3.07296558446e-23 9.89115063247e-23)
(0 0 0 -0.656289880088 -6.76333569239e-23 6.27729290105e-23 -0.0528314561658 -2.62043146851e-23 1.05734019837e-22)
(0 0 0 -0.713170847443 -6.38911563969e-23 5.83968079501e-23 -0.0505706666762 -2.21029451814e-23 1.11887566761e-22)
(0 0 0 -0.776721767513 -5.97134996506e-23 5.23066001102e-23 -0.048333460582 -1.84267618678e-23 1.172743184e-22)
(0 0 0 -0.848118237698 -5.51835505772e-23 4.42925229666e-23 -0.0461183153576 -1.51603861394e-23 1.21778944972e-22)
(-2.99443821099e-15 0 0 -0.928814747232 -5.03989353936e-23 3.40670163355e-23 -0.0439204228504 -1.22952075389e-23 1.25290458727e-22)
(0 0 0 -1.02061445045 -4.54546978443e-23 2.12861040497e-23 -0.0417315946744 -9.81341918723e-24 1.27688994761e-22)
(0 0 0 -1.12574830444 -4.04271656902e-23 5.52116812959e-24 -0.0395399932292 -7.69176448367e-24 1.28845490815e-22)
(0 0 0 -1.24694931796 -3.53864434048e-23 -1.37685606875e-23 -0.0373295762419 -5.9049349247e-24 1.28622165662e-22)
(0 0 0 -1.38747778193 -3.04137377498e-23 -3.72634537086e-23 -0.0350790774669 -4.42560724833e-24 1.26857820507e-22)
(0 0 0 -1.55097607777 -2.55852633897e-23 -6.57843697018e-23 -0.0327602278852 -3.22231219586e-24 1.23373839418e-22)
(0 0 0 -1.74083576693 -2.09799310944e-23 -1.00291787359e-22 -0.0303347270396 -2.26724613039e-24 1.17962257394e-22)
(0 0 0 -1.95828356458 -1.66732679576e-23 -1.41673804062e-22 -0.0277492492146 -1.53040858031e-24 1.10392349152e-22)