/*--------------------------------*- C++ -*----------------------------------*\
| =========                 |                                                 |
| \\      /  F ield         | OpenFOAM: The Open Source CFD Toolbox           |
|  \\    /   O peration     | Version:  3.0.1                                 |
|   \\  /    A nd           | Web:      www.OpenFOAM.org                      |
|    \\/     M anipulation  |                                                 |
\*---------------------------------------------------------------------------*/
FoamFile
{
    version     2.0;
    format      ascii;
    class       volTensorField;
    location    "50000";
    object      grad(U);
}
// * * * * * * * * * * * * * * * * * * * * * * * * * * * * * * * * * * * * * //

dimensions      [0 0 -1 0 0 0 0];

internalField   nonuniform List<tensor> 
2500
(
(0 0 0 -0.00804052056863 1.79838121039e-11 1.08796869864e-13 -0.00804029405249 -1.12525650881e-13 -1.79822202842e-11)
(0 0 0 -0.023631224613 1.75514704904e-11 3.17486963301e-13 -0.00805354478297 -3.27010120192e-13 -1.75561763402e-11)
(9.25016808536e-15 0 0 -0.0382088218828 1.67695749413e-11 5.08272097472e-13 -0.00807958739294 -5.20627412844e-13 -1.67813471246e-11)
(0 0 0 -0.0517786427561 1.57240629539e-11 6.77041935322e-13 -0.00811790806125 -6.97436048785e-13 -1.57243702417e-11)
(0 0 0 -0.0644633519854 1.44509437542e-11 8.20923657897e-13 -0.00816681538939 -8.59771663072e-13 -1.44508066496e-11)
(1.06506009765e-14 7.74933212705e-26 -9.68666515881e-27 -0.076455430486 1.3007415701e-11 9.49885677709e-13 -0.0082232100129 -9.98215490403e-13 -1.30199897276e-11)
(0 0 -5.07636048956e-27 -0.087975652075 1.14605070786e-11 1.06343264605e-12 -0.008282937445 -1.11640523129e-12 -1.14637780828e-11)
(0 8.51296016436e-26 0 -0.0992469381146 9.82785887021e-12 1.16283370158e-12 -0.00834132506165 -1.2144060478e-12 -9.83017275415e-12)
(0 0 0 -0.110481705057 8.1390959492e-12 1.24974151571e-12 -0.00839367409999 -1.29428670192e-12 -8.14103912166e-12)
(0 0 0 -0.121877764721 6.4261463339e-12 1.32009800992e-12 -0.00843563259013 -1.36187330482e-12 -6.4266310082e-12)
(0 0 0 -0.1336186731 4.70608116838e-12 1.38288938169e-12 -0.00846345007741 -1.41016418978e-12 -4.70631812664e-12)
(0 0 0 -0.145876038258 2.99065404148e-12 1.43416603558e-12 -0.00847413639143 -1.44539375671e-12 -2.99354299365e-12)
(7.39948103469e-15 1.07676620751e-25 -8.41223599615e-28 -0.158812546498 1.2977784236e-12 1.47703781604e-12 -0.00846554541728 -1.4659390002e-12 -1.30672345468e-12)
(0 0 0 -0.172585205626 -3.5073952308e-13 1.51429270819e-12 -0.00843639906622 -1.47110244808e-12 3.49823330914e-13)
(0 0 0 -0.187348682234 -1.96106366046e-12 1.54188107993e-12 -0.00838626199402 -1.46664224861e-12 1.96160018783e-12)
(0 0 0 -0.203258782398 -3.52416520467e-12 1.56287922383e-12 -0.00831547607245 -1.45123649425e-12 3.52460796138e-12)
(0 0 0 -0.220476194048 -5.03088187641e-12 1.57657406753e-12 -0.00822506298393 -1.42718662077e-12 5.03186564808e-12)
(0 0 0 -0.23917063514 -6.47886471744e-12 1.58397669064e-12 -0.00811660418665 -1.39501600884e-12 6.47943455232e-12)
(0 0 0 -0.259525566157 -7.86287747654e-12 1.58518794821e-12 -0.0079921078004 -1.35589856298e-12 7.864276235e-12)
(0 0 0 -0.281743645075 -9.18373947899e-12 1.57966134629e-12 -0.00785387186178 -1.31163717351e-12 9.18356483788e-12)
(0 0 0 -0.306053138111 -1.04366880302e-11 1.56849655938e-12 -0.00770435249073 -1.26206351408e-12 1.04356469181e-11)
(0 0 0 -0.332715558454 -1.16193354086e-11 1.55051010318e-12 -0.00754604409769 -1.20922287944e-12 1.161937065e-11)
(0 0 0 -0.36203489468 -1.27323527578e-11 1.52652581626e-12 -0.0073813765226 -1.15278332502e-12 1.27333161036e-11)
(0 0 0 -0.394368919588 -1.37756982192e-11 1.49441449525e-12 -0.00721263214099 -1.09535675156e-12 1.37779813766e-11)
(0 0 0 -0.430143254427 -1.47503400668e-11 1.45492101322e-12 -0.00704188378432 -1.03605656963e-12 1.47510353716e-11)
(0 0 0 -0.469869122956 -1.56529823231e-11 1.4085100947e-12 -0.00687095270812 -9.74442413054e-13 1.56530217657e-11)
(0 0 0 -0.514166097306 -1.64830971829e-11 1.35240499079e-12 -0.00670138457093 -9.1280498679e-13 1.64832518323e-11)
(0 0 0 -0.563791664678 -1.72401222188e-11 1.28568988017e-12 -0.00653444059029 -8.51395429091e-13 1.72401351943e-11)
(0 0 0 -0.619680209084 -1.79224849679e-11 1.20759216408e-12 -0.0063711005781 -7.89876904542e-13 1.79228536938e-11)
(0 0 0 -0.682995124157 -1.8530094025e-11 1.11711627445e-12 -0.00621207433602 -7.27877268962e-13 1.85306148674e-11)
(0 0 0 -0.755199445675 -1.90605925117e-11 1.00890241691e-12 -0.00605781851665 -6.68760149525e-13 1.90611879239e-11)
(0 0 0 -0.838152901316 -1.95118755188e-11 8.81618702386e-13 -0.00590855528976 -6.11071244823e-13 1.95120790216e-11)
(0 0 0 -0.934247072709 -1.98792643076e-11 7.31935630741e-13 -0.00576428995973 -5.54575704753e-13 1.98800084792e-11)
(0 0 0 -1.04659611757 -2.01600231597e-11 5.54041139495e-13 -0.00562482377283 -5.00349206091e-13 2.01607708062e-11)
(0 0 0 -1.179309119 -2.03489670806e-11 3.41969809741e-13 -0.00548975716435 -4.47998719733e-13 2.03490498323e-11)
(0 0 0 -1.33788260272 -2.04369940872e-11 8.70448550586e-14 -0.00535847553957 -3.9755913584e-13 2.04376125961e-11)
(0 0 0 -1.52976810075 -2.04161714302e-11 -2.23183990279e-13 -0.00523010315776 -3.49626019827e-13 2.04173177156e-11)
(0 0 0 -1.76518481522 -2.02743013452e-11 -6.04339850168e-13 -0.00510339542051 -3.03334183597e-13 2.02756110939e-11)
(0 0 0 -2.05823692621 -1.99954196205e-11 -1.08057231976e-12 -0.00497650594193 -2.5951810076e-13 1.9996086958e-11)
(0 0 0 -2.42826648084 -1.9556562964e-11 -1.68538619831e-12 -0.00484648573635 -2.18841720112e-13 1.95560310998e-11)
(0 0 0 -2.90081548366 -1.89241906319e-11 -2.46357636172e-12 -0.00470819104593 -1.80629960611e-13 1.89250553479e-11)
(0 0 0 -3.50567993007 -1.80601112802e-11 -3.4732304991e-12 -0.00455189554258 -1.45415423909e-13 1.80623790485e-11)
(0 0 0 -4.2645877396 -1.69156991999e-11 -4.76993272991e-12 -0.00435837897559 -1.13526921785e-13 1.69163406455e-11)
(0 0 0 -5.15524875063 -1.54363554987e-11 -6.354000162e-12 -0.00409125936521 -8.51078291768e-14 1.54312981317e-11)
(0 0 0 -6.0599520171 -1.35851792164e-11 -8.07944664824e-12 -0.00369630526566 -6.01312950762e-14 1.35733854687e-11)
(0 0 0 -6.78663873653 -1.13844280417e-11 -9.65135849481e-12 -0.00313693594343 -3.94003353356e-14 1.13758783827e-11)
(0 0 0 -7.22135143809 -8.95276560816e-12 -1.08405646036e-11 -0.00245130428235 -2.31335859671e-14 8.95077379021e-12)
(0 0 0 -7.42319564429 -6.40039835289e-12 -1.16721635785e-11 -0.00172511602724 -1.13136821416e-14 6.42165065862e-12)
(0 0 0 -7.51957766499 -3.79003244156e-12 -1.23107041309e-11 -0.00101375199012 -3.75381293637e-15 3.86208561858e-12)
(0 0 0 -7.58743297375 -1.38268924048e-12 -1.28731855946e-11 -0.000332648857876 -2.12536464929e-16 1.30263886438e-12)
(0 0 0 -0.00805377129911 1.75494417693e-11 3.22241342652e-13 -0.0236306299363 -3.22077378881e-13 -1.7557598526e-11)
(0 0 0 -0.023671770945 1.71340531937e-11 9.35239746152e-13 -0.0236711745243 -9.4104182362e-13 -1.71349942692e-11)
(0 0 0 -0.0382782143151 1.63724105531e-11 1.48830116061e-12 -0.0237506052623 -1.50755441519e-12 -1.63747374117e-11)
(0 0 0 -0.0518770512594 1.53429189136e-11 1.98154520491e-12 -0.0238671872856 -2.02094779745e-12 -1.53446857808e-11)
(0 0 0 -0.0645877202746 1.40969582828e-11 2.4098350439e-12 -0.0240158983105 -2.48462083734e-12 -1.41008249667e-11)
(0 0 -2.03054419582e-26 -0.0765990336567 1.26908497987e-11 2.78880012083e-12 -0.0241877243358 -2.88539794463e-12 -1.2696484042e-11)
(0 0 0 -0.0881286037561 1.1181093372e-11 3.11945529147e-12 -0.0243706140984 -3.23030522998e-12 -1.11760468391e-11)
(-1.22630529642e-14 -8.92254535878e-26 1.11531816985e-26 -0.0993970819945 9.58694426494e-12 3.40327834835e-12 -0.0245509771103 -3.52323800186e-12 -9.57685614624e-12)
(0 0 0 -0.110615549993 7.92967249398e-12 3.65144649085e-12 -0.0247150743907 -3.76173794567e-12 -7.93176053711e-12)
(1.3471468208e-14 9.80178316824e-26 -6.12611448015e-27 -0.121981332017 6.25400461322e-12 3.86319259788e-12 -0.0248500851556 -3.95258140607e-12 -6.25973022962e-12)
(0 0 0 -0.133678230805 4.57600676409e-12 4.04670621946e-12 -0.0249448466108 -4.09388563244e-12 -4.57902832596e-12)
(7.39948103457e-15 1.07676620749e-25 -3.36489439841e-27 -0.145878729222 2.89984077066e-12 4.20038146576e-12 -0.0249903265009 -4.19308834958e-12 -2.91027731655e-12)
(1.55109865167e-14 1.1285728045e-25 0 -0.158746915848 1.25425266811e-12 4.33067803896e-12 -0.0249798860884 -4.24906393087e-12 -1.26167827778e-12)
(0 0 0 -0.172441624609 -3.51598338105e-13 4.4356244988e-12 -0.0249093749617 -4.26952807868e-12 3.52682174854e-13)
(0 0 0 -0.187119660021 -1.92310380601e-12 4.51559954058e-12 -0.0247770861893 -4.25867888513e-12 1.92393528588e-12)
(0 0 0 -0.20293915719 -3.4457542747e-12 4.57663061243e-12 -0.024583594576 -4.21585201924e-12 3.44681496666e-12)
(0 0 0 -0.220063199275 -4.91398251345e-12 4.61609141806e-12 -0.0243314999419 -4.14800497779e-12 4.91502053931e-12)
(0 0 0 -0.238663844329 -6.32367448494e-12 4.63745574701e-12 -0.0240250997117 -4.0561284325e-12 6.32536203913e-12)
(0 0 0 -0.258926728053 -7.67279262746e-12 4.63995640781e-12 -0.0236700166105 -3.94473725744e-12 7.6740049078e-12)
(0 0 0 -0.281056427757 -8.95955106604e-12 4.62438204288e-12 -0.0232728081109 -3.81647057479e-12 8.95894666096e-12)
(0 0 0 -0.30528280595 -1.01803783852e-11 4.59095306571e-12 -0.0228405826621 -3.67399283897e-12 1.01787630972e-11)
(0 0 0 -0.331868607524 -1.13326771167e-11 4.53883972814e-12 -0.0223806440368 -3.5203182105e-12 1.13316773389e-11)
(0 0 0 -0.361118671499 -1.24194723608e-11 4.46928252309e-12 -0.021900180058 -3.35594196688e-12 1.24177505577e-11)
(6.50233326841e-15 9.46214025085e-26 1.18276753136e-26 -0.393391245183 -1.34394672754e-11 4.3791834373e-12 -0.0214060060682 -3.1850750679e-12 1.34348909422e-11)
(0 0 0 -0.429112070831 -1.43852628717e-11 4.265601773e-12 -0.0209043676428 -3.01082871298e-12 1.43847047465e-11)
(0 0 0 -0.468792173951 -1.52631172795e-11 4.13007637926e-12 -0.0204008018888 -2.83119133638e-12 1.52645747237e-11)
(0 0 0 -0.513050649711 -1.60751723841e-11 3.96578421036e-12 -0.019900052691 -2.65183939465e-12 1.60749155959e-11)
(0 0 0 -0.562644271191 -1.68129565496e-11 3.76967710202e-12 -0.0194060322832 -2.47343834981e-12 1.68141168071e-11)
(-8.22451015649e-15 0 -1.4960296824e-26 -0.618506508326 -1.74725860946e-11 3.54140341132e-12 -0.0189218201088 -2.29335229916e-12 1.74820068261e-11)
(-8.62021711653e-15 -6.27203343649e-26 0 -0.681799670714 -1.80680175378e-11 3.27256821434e-12 -0.0184496890667 -2.1156404282e-12 1.80756063792e-11)
(0 0 0 -0.753985557218 -1.8593394312e-11 2.95668857928e-12 -0.0179911494725 -1.94094992411e-12 1.8593803171e-11)
(0 0 0 -0.836922503768 -1.903316921e-11 2.58434137615e-12 -0.0175470009033 -1.77079574575e-12 1.90343322471e-11)
(0 0 0 -0.933000516145 -1.93928549105e-11 2.14378299405e-12 -0.0171173823371 -1.6063771796e-12 1.93938932015e-11)
(0 0 0 -1.04533191731 -1.96692633594e-11 1.62209272598e-12 -0.0167018093766 -1.44668847987e-12 1.96683061707e-11)
(0 0 0 -1.17802354183 -1.98528835677e-11 9.99090391823e-13 -0.0162991839751 -1.29325766926e-12 1.98523523075e-11)
(0 0 0 -1.33656894505 -1.99394677609e-11 2.49485871323e-13 -0.0159077530854 -1.14607010694e-12 1.99390010221e-11)
(0 0 0 -1.52841534407 -1.99165997151e-11 -6.6145724088e-13 -0.015524972628 -1.00511020761e-12 1.99190004226e-11)
(-6.277020037e-15 -2.28356658663e-26 0 -1.7637749759 -1.97736903496e-11 -1.78313622494e-12 -0.0151471886305 -8.71356002183e-13 1.97803540841e-11)
(0 0 0 -2.05673955055 -1.95035333672e-11 -3.18381309987e-12 -0.0147689457882 -7.44855247889e-13 1.95063047016e-11)
(0 0 0 -2.42662667117 -1.9075139765e-11 -4.96025472967e-12 -0.0143814991968 -6.26236365149e-13 1.90750808283e-11)
(0 0 0 -2.89892712904 -1.84546455588e-11 -7.24509842885e-12 -0.0139695674064 -5.15650470431e-13 1.84568628211e-11)
(0 0 0 -3.50332721432 -1.76104487626e-11 -1.02071047411e-11 -0.01350423599 -4.14095893261e-13 1.7611883991e-11)
(3.96976077014e-15 7.22095277549e-27 1.4441905551e-26 -4.26133653876 -1.64922090305e-11 -1.40059264279e-11 -0.0129283786883 -3.2163386905e-13 1.64899060273e-11)
(0 0 0 -5.15034714287 -1.50434263653e-11 -1.86397736826e-11 -0.0121339756646 -2.3921983876e-13 1.50372507553e-11)
(0 0 0 -6.05255043288 -1.32328783574e-11 -2.36794807642e-11 -0.0109603851896 -1.68406269253e-13 1.32219011698e-11)
(0 0 0 -6.77653490128 -1.10857349352e-11 -2.82607224376e-11 -0.00929995692681 -1.09634940259e-13 1.10775320778e-11)
(0 0 0 -7.20936297329 -8.71531515605e-12 -3.17182423437e-11 -0.00726647466707 -6.39091587063e-14 8.71367394818e-12)
(0 0 0 -7.41041308283 -6.22892379216e-12 -3.41290375089e-11 -0.0051136267856 -3.09775547794e-14 6.25011567995e-12)
(0 0 0 -7.50660375694 -3.6874279313e-12 -3.59736525035e-11 -0.00300497019887 -1.0181495601e-14 3.75802613449e-12)
(0 0 0 -7.5744343233 -1.34474891641e-12 -3.75921246789e-11 -0.000986039993349 -5.3286063757e-16 1.26715400511e-12)
(0 0 0 -0.00807981224515 1.67728423425e-11 5.21799746426e-13 -0.0382080574459 -5.06965498205e-13 -1.67769162166e-11)
(0 0 0 -0.0237512000191 1.63752453799e-11 1.50930627776e-12 -0.0382774425176 -1.4864316419e-12 -1.63721063867e-11)
(0 0 0 -0.0384136291972 1.56467363608e-11 2.39312736551e-12 -0.0384128516058 -2.39073922958e-12 -1.5644791537e-11)
(0 0 0 -0.0520687164805 1.46591084606e-11 3.18296745889e-12 -0.0386110658786 -3.20933962869e-12 -1.46562486223e-11)
(0 0 0 -0.0648302659266 1.34638773915e-11 3.87724583724e-12 -0.0388640225761 -3.94054264539e-12 -1.34650550218e-11)
(0 0 0 -0.0768805722358 1.21151994029e-11 4.48610427606e-12 -0.0391575850726 -4.57909152294e-12 -1.21172374978e-11)
(1.22630529644e-14 8.92254535893e-26 -2.23063633973e-26 -0.0884315163651 1.06609316071e-11 5.01541050375e-12 -0.0394728546196 -5.13007515438e-12 -1.06619323247e-11)
(0 0 0 -0.099699509124 9.13010016911e-12 5.46934688296e-12 -0.0397883710645 -5.60019525886e-12 -9.12891327134e-12)
(0 0 0 -0.110892991624 7.54812425068e-12 5.86419116377e-12 -0.0400822094757 -5.98454260387e-12 -7.55092827315e-12)
(0 0 0 -0.122208121479 5.94727992691e-12 6.20780379287e-12 -0.0403336234515 -6.28598228388e-12 -5.94797575912e-12)
(0 0 0 -0.133828834091 4.34289716005e-12 6.50006980677e-12 -0.0405242150427 -6.51502196856e-12 -4.34035455379e-12)
(0 0 0 -0.145928879921 2.7455074699e-12 6.74588490803e-12 -0.0406387129062 -6.6757303388e-12 -2.7449686256e-12)
(0 0 0 -0.15867459519 1.17191241563e-12 6.95257113729e-12 -0.0406654420033 -6.76987178755e-12 -1.17212847094e-12)
(0 0 0 -0.172227880305 -3.66026330712e-13 7.11690186821e-12 -0.040596544026 -6.80953643811e-12 3.64962925169e-13)
(0 0 0 -0.186749245065 -1.86136347494e-12 7.24513317317e-12 -0.0404279874665 -6.79595121126e-12 1.86265618941e-12)
(0 0 0 -0.202400966527 -3.31068357589e-12 7.34113613733e-12 -0.0401593958933 -6.73335170485e-12 3.31197377466e-12)
(0 0 0 -0.219350488848 -4.7086031121e-12 7.40471528708e-12 -0.0397937216106 -6.62884400016e-12 4.70887818755e-12)
(0 0 0 -0.237774228996 -6.04956514617e-12 7.43850294076e-12 -0.039336795416 -6.48668049741e-12 6.0503296417e-12)
(0 0 0 -0.257861969863 -7.33276012608e-12 7.44224192654e-12 -0.0387967872813 -6.31301427423e-12 7.3325532657e-12)
(0 0 0 -0.279822041127 -8.55634557381e-12 7.41796231102e-12 -0.0381836166442 -6.11122219636e-12 8.55497696177e-12)
(1.18381242535e-14 0 0 -0.30388751737 -9.7176743975e-12 7.36483229128e-12 -0.0375083507784 -5.88655486994e-12 9.71438168603e-12)
(0 0 0 -0.330323714453 -1.08101660214e-11 7.28302219401e-12 -0.0367826269056 -5.6424089575e-12 1.08120806724e-11)
(-6.50233326831e-15 -9.4621402507e-26 0 -0.359437346828 -1.18388773479e-11 7.17014634502e-12 -0.0360181278913 -5.3837912542e-12 1.18458467773e-11)
(0 0 0 -0.391587830203 -1.281193934e-11 7.02617339601e-12 -0.0352261328167 -5.11219899022e-12 1.2813683341e-11)
(0 0 0 -0.4272013929 -1.37142402891e-11 6.84762301262e-12 -0.0344171553788 -4.83186108718e-12 1.37176599643e-11)
(-7.48675661029e-15 -5.44733237642e-26 -2.72366618821e-26 -0.466788915859 -1.45516950207e-11 6.62948082703e-12 -0.0336006741254 -4.54687400151e-12 1.45563161335e-11)
(7.84696793529e-15 0 2.85471030485e-26 -0.510968787167 -1.53328156843e-11 6.36851967001e-12 -0.0327849513244 -4.25855912763e-12 1.53275080345e-11)
(0 0 0 -0.560496584738 -1.60318756661e-11 6.05914762084e-12 -0.0319769312388 -3.96896676921e-12 1.60329299922e-11)
(-8.62021711701e-15 -6.27203343685e-26 -3.13601671842e-26 -0.616304166864 -1.66587318973e-11 5.69214873192e-12 -0.0311822052318 -3.68219254801e-12 1.66700483999e-11)
(-9.0349627791e-15 -6.57380062265e-26 -6.57380062265e-26 -0.679551873371 -1.72256786287e-11 5.25881349621e-12 -0.0304050285783 -3.39968105636e-12 1.72370821415e-11)
(-9.46966315525e-15 -3.44504338691e-26 -3.44504338691e-26 -0.751699211609 -1.77231886199e-11 4.75106236071e-12 -0.0296483728343 -3.12004378623e-12 1.77326553142e-11)
(0 0 0 -0.834601907182 -1.81518385158e-11 4.15327358451e-12 -0.0289139976997 -2.84636626215e-12 1.81537668321e-11)
(0 0 0 -0.930646986759 -1.84982824516e-11 3.4468798034e-12 -0.0282025253171 -2.58044249193e-12 1.84980436191e-11)
(0 0 0 -1.04294328997 -1.87619234927e-11 2.608751117e-12 -0.0275134977777 -2.32305994269e-12 1.87613346796e-11)
(5.7139599027e-15 2.07872650306e-26 4.15745300612e-26 -1.17559337759 -1.89420267456e-11 1.60859088124e-12 -0.0268453925738 -2.07455501167e-12 1.89383225172e-11)
(0 0 0 -1.33408516425 -1.90236022736e-11 4.04201512683e-13 -0.0261955560616 -1.83650629133e-12 1.90226277042e-11)
(0 0 0 -1.52585768915 -1.90038788904e-11 -1.06025514462e-12 -0.025559982026 -1.60886750558e-12 1.90048603055e-11)
(-6.57902714414e-15 -2.39343613217e-26 0 -1.76111001694 -1.88718129778e-11 -2.86429228748e-12 -0.0249327888701 -1.39320774418e-12 1.88734589295e-11)
(0 0 0 -2.05391031307 -1.86111827272e-11 -5.11845180555e-12 -0.0243050811063 -1.1903703505e-12 1.86125196279e-11)
(0 0 0 -2.42353008093 -1.82000452898e-11 -7.97614286821e-12 -0.0236624934717 -9.99338797982e-13 1.82009318607e-11)
(0 0 0 -2.89536361543 -1.76083716109e-11 -1.16514732304e-11 -0.0229798292638 -8.21681185397e-13 1.76101063091e-11)
(0 0 0 -3.49889074596 -1.67989524538e-11 -1.64143278844e-11 -0.0222093494439 -6.58785000156e-13 1.68018845523e-11)
(-4.16075840263e-15 0 -3.02735017804e-26 -4.25521112995 -1.57246189734e-11 -2.251894531e-11 -0.0212567703243 -5.10887416706e-13 1.57285941508e-11)
(0 0 0 -5.14112282296 -1.43427881726e-11 -2.9957424272e-11 -0.0199441742093 -3.79429247077e-13 1.43391088956e-11)
(0 0 0 -6.03864127865 -1.26160527082e-11 -3.80356031862e-11 -0.0180081586612 -2.66390195402e-13 1.26045832576e-11)
(0 0 0 -6.75757331642 -1.05658874812e-11 -4.53696105203e-11 -0.0152744490995 -1.73120271102e-13 1.05585932186e-11)
(0 0 0 -7.18688489633 -8.30747019754e-12 -5.0901806517e-11 -0.0119320428486 -1.00753810188e-13 8.30560849475e-12)
(0 0 0 -7.38645552622 -5.93902539967e-12 -5.47612143705e-11 -0.00839633269819 -4.87532749805e-14 5.95832903217e-12)
(0 0 0 -7.48228989675 -3.51687494286e-12 -5.77153852604e-11 -0.00493396813812 -1.5968451597e-14 3.58335522545e-12)
(-3.61334690805e-16 -1.02697495892e-29 0 -7.55007432496 -1.28318163979e-12 -6.0306999188e-11 -0.00161901449818 -8.41392147638e-16 1.20864061362e-12)
(0 0 0 -0.00811812780067 1.57203910259e-11 6.99899626739e-13 -0.0517779241542 -6.7451361309e-13 -1.5723126471e-11)
(0 0 0 -0.0238677714017 1.53448184578e-11 2.02401745535e-12 -0.0518763160104 -1.9783812787e-12 -1.53423054178e-11)
(0 0 0 -0.0386118379421 1.46577026472e-11 3.21230749911e-12 -0.0520679607843 -3.17996929825e-12 -1.46587834469e-11)
(0 0 0 -0.05234919107 1.37265450358e-11 4.27374449388e-12 -0.0523484252256 -4.26970975513e-12 -1.37260114796e-11)
(0 0 0 -0.0651864719344 1.26000413074e-11 5.20633449748e-12 -0.0527074510053 -5.24389284617e-12 -1.26024548922e-11)
(0 0 0 -0.0772974479372 1.132855261e-11 6.0229787426e-12 -0.0531270940605 -6.09658117825e-12 -1.13328019829e-11)
(0 0 0 -0.0888862716448 9.9554780933e-12 6.7321560048e-12 -0.0535831177172 -6.83262370562e-12 -9.9606514771e-12)
(0 0 0 -0.100163390739 8.51249182762e-12 7.34407890884e-12 -0.0540476193317 -7.45712128789e-12 -8.51656504201e-12)
(0 0 0 -0.111333251232 7.02639194937e-12 7.87399640446e-12 -0.0544916297173 -7.97012709459e-12 -7.02811033627e-12)
(0 0 0 -0.122589871202 5.52205294287e-12 8.32965564578e-12 -0.0548872094945 -8.37862536533e-12 -5.518886186e-12)
(0 0 0 -0.134116719124 4.01300897853e-12 8.71654699529e-12 -0.055208989405 -8.69082057106e-12 -4.01045354461e-12)
(0 0 0 -0.146088579929 2.51500958487e-12 9.04148092784e-12 -0.0554352425993 -8.91258424183e-12 -2.51240329272e-12)
(0 0 0 -0.158674168747 1.04331584215e-12 9.31097533715e-12 -0.0555485874741 -9.04932702143e-12 -1.04169607761e-12)
(0 0 0 -0.172038944558 -3.92938329462e-13 9.52921772677e-12 -0.0555363918116 -9.10826586866e-12 3.93479261677e-13)
(0 0 0 -0.186347962564 -1.78747019206e-12 9.69946993136e-12 -0.0553909212543 -9.09666683562e-12 1.78870262471e-12)
(0 0 0 -0.201768801646 -3.13702411662e-12 9.82392064562e-12 -0.055109259999 -9.02267161333e-12 3.1401145276e-12)
(0 0 0 -0.218474698662 -4.43756941361e-12 9.90723481334e-12 -0.0546930275903 -8.89087221678e-12 4.43957206386e-12)
(0 0 0 -0.236648065723 -5.68518770304e-12 9.95066821168e-12 -0.0541479186015 -8.708912691e-12 5.68673362778e-12)
(0 0 0 -0.256484591157 -6.87776333933e-12 9.9559890649e-12 -0.0534831000575 -8.48268232869e-12 6.87789083739e-12)
(0 0 0 -0.278198145375 -8.0136163469e-12 9.92267326176e-12 -0.0527105078794 -8.2198598485e-12 8.01318613925e-12)
(0 0 0 -0.302026740597 -9.09085529192e-12 9.85322503477e-12 -0.0518440885719 -7.92346604446e-12 9.08911652819e-12)
(0 0 0 -0.328239841109 -1.01082851204e-11 9.74690757341e-12 -0.0508990333087 -7.59935208616e-12 1.01075543557e-11)
(0 0 0 -0.357147394559 -1.10661088456e-11 9.59500017196e-12 -0.0498910478111 -7.25930451064e-12 1.10658045505e-11)
(0 0 0 -0.389111070558 -1.19634461757e-11 9.40301060289e-12 -0.0488356942373 -6.89967730808e-12 1.19654134249e-11)
(0 0 0 -0.424558365269 -1.28010808192e-11 9.16732967924e-12 -0.0477478312478 -6.52501904785e-12 1.28043434012e-11)
(0 0 0 -0.464000481642 -1.35794631728e-11 8.87565991948e-12 -0.0466411675594 -6.14642433246e-12 1.358263456e-11)
(0 0 0 -0.508055257866 -1.42969105116e-11 8.52776113877e-12 -0.0455279331161 -5.76128746221e-12 1.43005964084e-11)
(0 0 0 -0.557476943295 -1.49541765363e-11 8.11635604714e-12 -0.0444186629704 -5.37249626366e-12 1.495651788e-11)
(0 0 0 -0.613195386443 -1.55481829955e-11 7.62684738289e-12 -0.0433220813723 -4.98775770641e-12 1.55492862699e-11)
(0 0 0 -0.676368322654 -1.60762017831e-11 7.05031332419e-12 -0.0422450683623 -4.60630611997e-12 1.60783258609e-11)
(0 0 0 -0.74845212022 -1.653876487e-11 6.37128733187e-12 -0.0411926883272 -4.23073448826e-12 1.65417582118e-11)
(0 0 0 -0.831298845881 -1.6933605326e-11 5.57116384019e-12 -0.040168257608 -3.86262774559e-12 1.69363979656e-11)
(0 0 0 -0.927291289385 -1.72588821122e-11 4.62682429001e-12 -0.0391734265778 -3.5027017146e-12 1.72595281184e-11)
(0 0 0 -1.03953329564 -1.75070858501e-11 3.50515950282e-12 -0.0382082478214 -3.15417820949e-12 1.75073223027e-11)
(0 0 0 -1.17212127689 -1.76736581515e-11 2.1659305928e-12 -0.0372711931666 -2.81713059466e-12 1.76746765545e-11)
(0 0 0 -1.33053503584 -1.77532927976e-11 5.5205831573e-13 -0.0363590618896 -2.49406591454e-12 1.77550195124e-11)
(-6.57902714331e-15 -2.39343613187e-26 -4.78687226373e-26 -1.5222018807 -1.77356865222e-11 -1.4128827147e-12 -0.035466676735 -2.1862826103e-12 1.77399963432e-11)
(0 0 0 -1.75730203697 -1.76159702295e-11 -3.83364261975e-12 -0.0345861615449 -1.89383861442e-12 1.76181662198e-11)
(0 0 0 -2.04987007957 -1.73749309943e-11 -6.85852667663e-12 -0.0337053603854 -1.61785530914e-12 1.73748362057e-11)
(0 0 0 -2.41911185608 -1.6987072658e-11 -1.06947922762e-11 -0.0328044182812 -1.35846712221e-12 1.69900298359e-11)
(0 0 0 -2.89028442834 -1.64334982532e-11 -1.56290193141e-11 -0.0318483097468 -1.11752605617e-12 1.64364680161e-11)
(0 0 0 -3.49257456369 -1.56773043975e-11 -2.20206318623e-11 -0.0307705348895 -8.95824477758e-13 1.56786290173e-11)
(0 0 0 -4.24650201755 -1.467131164e-11 -3.02082845906e-11 -0.0294398169506 -6.95386076517e-13 1.46719282328e-11)
(0 0 0 -5.12803088447 -1.33738625505e-11 -4.01723200012e-11 -0.0276091481206 -5.17465026047e-13 1.33696998196e-11)
(0 0 0 -6.01894419532 -1.17571316447e-11 -5.0973289167e-11 -0.0249151920772 -3.63149558051e-13 1.17468535733e-11)
(0 0 0 -6.73077819106 -9.84475239978e-12 -6.07653292501e-11 -0.0211219694632 -2.36221184754e-13 9.83703500434e-12)
(5.26275697128e-15 1.19661239552e-27 1.91457983284e-26 -7.15516547899 -7.73960584595e-12 -6.81510818506e-11 -0.0164949468938 -1.37594047805e-13 7.73781020133e-12)
(0 0 0 -7.35266921167 -5.53282859665e-12 -7.33138894257e-11 -0.0116060020275 -6.65193691212e-14 5.55207149649e-12)
(0 0 0 -7.44800625768 -3.27654947622e-12 -7.72764116937e-11 -0.00681997874039 -2.17552003941e-14 3.34003324013e-12)
(0 0 0 -7.51572615524 -1.19557570419e-12 -8.07589213502e-11 -0.00223788334795 -1.13768856545e-15 1.12703029356e-12)
(0 0 0 -0.00816702554861 1.44473525933e-11 8.60722752643e-13 -0.0644628520295 -8.19957056153e-13 -1.44474848741e-11)
(0 0 0 -0.0240164595075 1.41017168406e-11 2.48589007001e-12 -0.0645871922017 -2.40856437815e-12 -1.40967907566e-11)
(0 0 0 -0.0388647716185 1.34678154141e-11 3.94289375857e-12 -0.0648296982402 -3.87490354854e-12 -1.34633634677e-11)
(0 0 0 -0.0527082071673 1.26024000494e-11 5.24654916093e-12 -0.0651858714032 -5.20377505581e-12 -1.25997940629e-11)
(0 0 0 -0.0656454765712 1.15563264763e-11 6.39255349656e-12 -0.0656448629209 -6.39162024746e-12 -1.15574909193e-11)
(0 0 0 -0.0778405028627 1.03768019179e-11 7.39475744005e-12 -0.066186826859 -7.43269504217e-12 -1.03794436032e-11)
(0 0 0 -0.0894881774602 9.10093145795e-12 8.26429514937e-12 -0.0667841433877 -8.3317799124e-12 -9.10568182745e-12)
(0 0 0 -0.100791456876 7.76361387716e-12 9.01437622596e-12 -0.0674042410265 -9.09425701308e-12 -7.76610997483e-12)
(0 0 0 -0.111949381142 6.38839157697e-12 9.66165654066e-12 -0.0680125345193 -9.72260936822e-12 -6.38846138344e-12)
(0 0 0 -0.123152583948 4.99718818342e-12 1.02139027283e-11 -0.0685748747869 -1.02275562229e-11 -4.99508902505e-12)
(0 0 0 -0.134583014395 3.60573344635e-12 1.06830965085e-11 -0.0690594083134 -1.06140346868e-11 -3.60334724553e-12)
(0 0 0 -0.146415658304 2.22764181405e-12 1.10746594387e-11 -0.0694379277823 -1.08927303709e-11 -2.22633138748e-12)
(0 0 0 -0.158821029572 8.76898796923e-13 1.13933721962e-11 -0.0696868215982 -1.10732554461e-11 -8.74876623225e-13)
(0 0 0 -0.171967859281 -4.3867021442e-13 1.16504757656e-11 -0.0697877013814 -1.11588380261e-11 4.41875870329e-13)
(0 0 0 -0.186025793173 -1.71533699894e-12 1.1856050586e-11 -0.0697277546874 -1.1152277014e-11 1.71813645434e-12)
(0 0 0 -0.201168115549 -2.94699535544e-12 1.20050095941e-11 -0.0694998471722 -1.10712741216e-11 2.94825853938e-12)
(0 0 0 -0.217574624338 -4.12934042141e-12 1.21007615442e-11 -0.0691023898605 -1.09230522976e-11 4.13162665213e-12)
(0 0 0 -0.235434840456 -5.26087394843e-12 1.2150946074e-11 -0.068538987873 -1.07109190305e-11 5.26308794589e-12)
(0 0 0 -0.254951768763 -6.3432464185e-12 1.21547706308e-11 -0.0678178948506 -1.04446625605e-11 6.343764159e-12)
(0 0 0 -0.276346454633 -7.37095029524e-12 1.21123072078e-11 -0.0669513072101 -1.01326895138e-11 7.36983654355e-12)
(-6.5023332683e-15 -4.73107012534e-26 -2.36553506267e-26 -0.299863611974 -8.33975967397e-12 1.20250399969e-11 -0.0659545424692 -9.77997780654e-12 8.34451341204e-12)
(0 0 0 -0.325778643078 -9.2651478595e-12 1.18927861632e-11 -0.0648451527482 -9.39266437621e-12 9.26280474072e-12)
(7.14308061423e-15 5.19727517838e-26 5.19727517838e-26 -0.354406440564 -1.01328805907e-11 1.17110275168e-11 -0.0636420265001 -8.9790133213e-12 1.01286239268e-11)
(-7.48675661022e-15 -5.44733237637e-26 -5.44733237637e-26 -0.386112468816 -1.09358051709e-11 1.14794550895e-11 -0.0623645291953 -8.54179024486e-12 1.09411506731e-11)
(0 0 0 -0.421326786497 -1.16977119158e-11 1.11893079393e-11 -0.0610317257768 -8.09030049689e-12 1.16985923567e-11)
(8.22451015654e-15 0 5.98411872964e-26 -0.46056191433 -1.24084949335e-11 1.08392516793e-11 -0.0596617167696 -7.62464535421e-12 1.24015482775e-11)
(8.62021711687e-15 0 6.27203343674e-26 -0.50443580876 -1.3056559391e-11 1.04194157626e-11 -0.0582711071298 -7.15144946052e-12 1.30511296356e-11)
(0 3.28690031135e-26 6.57380062271e-26 -0.553701724017 -1.36482194084e-11 9.91758612852e-12 -0.0568746142099 -6.67697598122e-12 1.36448907378e-11)
(0 0 0 -0.609287506839 -1.41844221343e-11 9.32467221158e-12 -0.0554848089044 -6.2019192281e-12 1.41826916209e-11)
(0 0 0 -0.672347991252 -1.46635812883e-11 8.62632339987e-12 -0.0541119751596 -5.72901653036e-12 1.46631158316e-11)
(0 0 0 -0.7443358289 -1.50852559934e-11 7.80149527131e-12 -0.0527640656271 -5.2636476973e-12 1.50836880281e-11)
(0 0 0 -0.827098588148 -1.54450937077e-11 6.82638760218e-12 -0.0514467260233 -4.80848806761e-12 1.54433796454e-11)
(0 0 0 -0.923013723739 -1.57380699554e-11 5.6736595165e-12 -0.0501633560474 -4.36327370391e-12 1.57383816103e-11)
(-5.98887642198e-15 0 0 -1.03517870116 -1.59624790127e-11 4.30331875785e-12 -0.0489151687735 -3.93119722663e-12 1.59651668175e-11)
(0 0 0 -1.16768202577 -1.6117049166e-11 2.66430343486e-12 -0.047701197808 -3.51400390529e-12 1.61188137576e-11)
(0 0 0 -1.32599305529 -1.61941744826e-11 6.8823478764e-13 -0.0465181751431 -3.11307199752e-12 1.61929726036e-11)
(0 0 0 -1.51752402502 -1.61822862938e-11 -1.71843581105e-12 -0.0453601434121 -2.72978997289e-12 1.61800714689e-11)
(0 0 0 -1.75243103512 -1.60714993681e-11 -4.6856697858e-12 -0.0442175341706 -2.36572896802e-12 1.6069290285e-11)
(0 0 0 -2.0447057744 -1.58471082468e-11 -8.39389114438e-12 -0.0430751426663 -2.02090432097e-12 1.58469977141e-11)
(0 0 0 -2.41347045469 -1.54928789651e-11 -1.30991434781e-11 -0.0419077353038 -1.69751210732e-12 1.54944307494e-11)
(0 0 0 -2.8838076603 -1.49849964818e-11 -1.91511704188e-11 -0.0406704430119 -1.39720858644e-12 1.49865117314e-11)
(0 0 0 -3.48453250955 -1.42906723312e-11 -2.69872692444e-11 -0.0392778243937 -1.120274518e-12 1.42906051675e-11)