/*--------------------------------*- C++ -*----------------------------------*\
| =========                 |                                                 |
| \\      /  F ield         | OpenFOAM: The Open Source CFD Toolbox           |
|  \\    /   O peration     | Version:  3.0.1                                 |
|   \\  /    A nd           | Web:      www.OpenFOAM.org                      |
|    \\/     M anipulation  |                                                 |
\*---------------------------------------------------------------------------*/
FoamFile
{
    version     2.0;
    format      ascii;
    class       volVectorField;
    location    "50000";
    object      grad(k);
}
// * * * * * * * * * * * * * * * * * * * * * * * * * * * * * * * * * * * * * //

dimensions      [0 1 -2 0 0 0 0];

internalField   nonuniform List<vector> 
2500
(
(0 0.000197519645239 0.000197507494183)
(0 0.000573595956461 0.000197352727659)
(0 0.000906621636834 0.000197070204416)
(0 0.00119066643438 0.000196641366862)
(0 0.00142706913419 0.000195969077599)
(2.08019550322e-17 0.00162162876156 0.000194880327888)
(2.18028022854e-17 0.00178211116982 0.000193153350138)
(2.28518034363e-17 0.00191657468224 0.000190552269261)
(0 0.00203244414493 0.000186858768552)
(0 0.00213608630838 0.000181896666211)
(0 0.00223266686958 0.000175548664149)
(0 0.00232614669848 0.000167765728607)
(2.89042227917e-17 0.00241933913664 0.000158569870842)
(0 0.00251399038151 0.000148051182096)
(0 0.00261086621314 0.000136360103497)
(0 0.00270983794861 0.000123696047909)
(0 0.00280996380737 0.000110293627849)
(0 0.00290956209027 9.6407795899e-05)
(0 0.00300627146962 8.22991528201e-05)
(0 0.00309709215268 6.82205147096e-05)
(0 0.00317840008571 5.44055870922e-05)
(0 0.00324592470091 4.10602816328e-05)
(0 0.00329467873391 2.83569065052e-05)
(0 0.00331882590798 1.64311712196e-05)
(0 0.00331146814559 5.381726269e-06)
(0 0.00326432756037 -4.7281987584e-06)
(0 0.00316728855325 -1.38675689728e-05)
(0 0.00300775017752 -2.20332487259e-05)
(0 0.00276971594267 -2.92451149051e-05)
(0 0.0024325136141 -3.55409743878e-05)
(0 0.00196898576691 -4.09715810293e-05)
(0 0.00134291507744 -4.55959345097e-05)
(0 0.000505336968427 -4.94769222531e-05)
(0 -0.000610761630274 -5.26772245497e-05)
(0 -0.00209804712742 -5.52552230057e-05)
(0 -0.00408559068759 -5.72603537459e-05)
(0 -0.00675345438305 -5.87268261332e-05)
(0 -0.010350447374 -5.96635855486e-05)
(0 -0.0152091626824 -6.00363348944e-05)
(0 -0.0217358378384 -5.97334884989e-05)
(0 -0.0303064120451 -5.85017255397e-05)
(0 -0.040895397223 -5.58344066919e-05)
(0 -0.052147872922 -5.08381869579e-05)
(0 -0.0600428297749 -4.23396009816e-05)
(0 -0.0585414140363 -3.00273374282e-05)
(0 -0.0453773508758 -1.66024990873e-05)
(0 -0.0267154998773 -6.65241435638e-06)
(0 -0.0113434755597 -1.7729436402e-06)
(0 -0.00222719631888 -2.880808221e-07)
(0 -0.00170122122983 -3.80909090245e-07)
(0 0.000197364878714 0.000573563062802)
(0 0.000573145073615 0.000573112114066)
(0 0.000905854424816 0.000572303132579)
(0 0.00118942126792 0.000571105199581)
(0 0.00142498116828 0.000569262258433)
(2.18028022853e-17 0.00161813048961 0.000566295122833)
(0 0.00177647851052 0.000561575375147)
(-2.39512753207e-17 0.00190799429717 0.000554423103535)
(0 0.00202008549214 0.000544197900847)
(2.63114613438e-17 0.00211917005378 0.000530370788878)
(0 0.00221052556788 0.000512574504428)
(2.89042227913e-17 0.002298275184 0.000490633176325)
(3.02948955405e-17 0.00238543251223 0.000464573358114)
(0 0.00247396788948 0.000434618643226)
(0 0.00256487996498 0.000401170405544)
(0 0.00265826648676 0.000364777616446)
(0 0.00275339164128 0.000326099099999)
(0 0.00284874745873 0.000285861813676)
(0 0.00294210545733 0.000244818697362)
(0 0.00303055281759 0.000203709284518)
(0 0.0031105053501 0.000163225652771)
(0 0.003177687461 0.000123985490299)
(0 0.0032270670337 8.65131897127e-05)
(5.07994786595e-17 0.00325273021325 5.1229052832e-05)
(0 0.00324767688286 1.84460044391e-05)
(0 0.00320351126015 -1.16272904966e-05)
(0 0.0031099922679 -3.88782985342e-05)
(0 0.00295439335516 -6.32789574008e-05)
(-3.21269927988e-17 0.00272059867636 -8.48718907323e-05)
(-6.73454462229e-17 0.00238782815385 -0.000103755704119)
(0 0.00192883237822 -0.000120070294437)
(0 0.00130732179846 -0.000133982781062)
(0 0.000474283679766 -0.000145674305783)
(0 -0.00063731289288 -0.000155327528636)
(0 -0.002120110827 -0.000163114088811)
(0 -0.00410309502555 -0.000169180418883)
(0 -0.00676613530248 -0.000173628720499)
(-4.90392190391e-17 -0.0103576536307 -0.000176486820904)
(0 -0.0152094775144 -0.000177654486507)
(0 -0.0217263325782 -0.000176802085264)
(0 -0.0302812384793 -0.000173179155879)
(0 -0.0408436163705 -0.000165283682852)
(3.10137560167e-17 -0.0520524033312 -0.000150468927786)
(0 -0.059888793787 -0.000125267835515)
(0 -0.0583424038021 -8.87897024563e-05)
(0 -0.0451887628658 -4.90653379748e-05)
(0 -0.0265906704611 -1.96533819461e-05)
(0 -0.0112875801224 -5.23735547649e-06)
(0 -0.00221456531001 -8.51262018557e-07)
(0 -0.00169466357284 -1.1271802423e-06)
(0 0.000197082292605 0.000906576261531)
(0 0.000572336029262 0.000905808771365)
(0 0.000904521867536 0.0009044759964)
(0 0.00118732915963 0.000902610794795)
(0 0.00142153239415 0.000899898037483)
(0 0.001612356072 0.000895659677488)
(2.39512753211e-17 0.00176711026045 0.000888957405404)
(0 0.00189357854827 0.000878738965157)
(0 0.00199910844966 0.000863979408144)
(0 0.00209017947422 0.000843796438389)
(0 0.00217224125447 0.000817534603964)
(0 0.00224968360505 0.000784819113188)
(0 0.00232586158927 0.000745581714523)
(0 0.00240313848243 0.000700061491197)
(0 0.00248293153931 0.000648783809988)
(0 0.00256575599746 0.000592521263014)
(0 0.00265126660912 0.000532241103322)
(0 0.00273829623353 0.000469044196252)
(0 0.00282488944525 0.00040410069759)
(0 0.00290832670497 0.000338587448181)
(4.62426728653e-17 0.00298513193893 0.000273631413897)
(0 0.00305105359359 0.000210262511162)
(-5.07994786587e-17 0.00310100629625 0.000149377944167)
(0 0.00312895686166 9.17189252157e-05)
(0 0.00312773393373 3.78594917023e-05)
(-2.92451430089e-17 0.00308873416036 -1.17937943707e-05)
(6.13044369945e-17 0.0030014881958 -5.69931241262e-05)
(0 0.00285303514941 -9.76338803006e-05)
(0 0.00262703171604 -0.000133734469225)
(-3.52928233559e-17 0.00230248827449 -0.000165413585108)
(-3.69908717002e-17 0.00185197313069 -0.000192866583244)
(0 0.00123905013463 -0.000216342155023)
(0 0.000414604683438 -0.000236119915863)
(0 -0.00068843876789 -0.000252488811712)
(0 -0.00216268920332 -0.000265725298294)
(0 -0.00413697838302 -0.000276068763563)
(0 -0.00679082218482 -0.000283689013275)
(0 -0.0103719205101 -0.000288635521041)
(0 -0.0152106659633 -0.000290748005002)
(0 -0.0217089456689 -0.000289488682352)
(0 -0.0302342996143 -0.000283626663616)
(0 -0.0407466134925 -0.000270695011829)
(-3.25059250206e-17 -0.0518733917358 -0.000246352241525)
(0 -0.0596001879199 -0.000204941828341)
(0 -0.0579701050182 -0.000145102903522)
(0 -0.0448365159871 -8.00972027892e-05)
(0 -0.0263577800857 -3.20630088357e-05)
(0 -0.0111833586243 -8.54280508419e-06)
(0 -0.00219103445645 -1.38932882649e-06)
(-1.76432954495e-19 -0.00168241680537 -1.84471809951e-06)
(0 0.000196653261833 0.00119061750849)
(0 0.000571137695354 0.00118937171444)
(0 0.000902656458239 0.00118727883948)
(0 0.00118461675251 0.00118456605559)
(0 0.00141732356455 0.00118101487188)
(0 0.00160549243965 0.00117590688732)
(0 0.00175599996174 0.00116813343702)
(0 0.0018763323079 0.00115637396599)
(0 0.00197369705592 0.00113927753013)
(0 0.00205459176203 0.00111561735815)
(0 0.00212463228892 0.00108440946092)
(0 0.00218850678523 0.00104499495433)
(0 0.00224997934087 0.000997088340927)
(0 0.00231190646831 0.000940794554328)
(0 0.00237625203267 0.000876597895206)
(0 0.00244409754081 0.000805326590647)
(0 0.00251564924346 0.000728097516192)
(0 0.00259024413132 0.000646246445911)
(0 0.00266635533604 0.000561249785449)
(0 0.00274159466588 0.00047464393554)
(0 0.002812706618 0.000387948127545)
(0 0.00287554455873 0.000302595782663)
(0 0.00292501590817 0.000219878236845)
(0 0.0029549789585 0.000140903234101)
(0 0.00295806892756 6.65690697432e-05)
(0 0.00292542415481 -2.44611725531e-06)
(0 0.00284627373898 -6.5681530874e-05)
(0 0.00270733349163 -0.000122879775195)
(0 0.00249193513997 -0.000173964553647)
(0 0.0021787803544 -0.000219012799601)
(0 0.00174016074991 -0.000258223734469)
(0 0.00113940990262 -0.000291886813683)
(0 0.00032724438201 -0.000320349776871)
(0 -0.000763499170229 -0.000343987037917)
(0 -0.0022254048794 -0.000363167293387)
(0 -0.00418710826606 -0.000378217099345)
(-5.13986495571e-17 -0.00682764122462 -0.000389373415267)
(0 -0.0103936943257 -0.000396710926357)
(0 -0.0152136371728 -0.000400015843352)
(0 -0.0216853438852 -0.000398551271396)
(0 -0.0301686101717 -0.000390618347721)
(0 -0.0406098882496 -0.000372805934575)
(0 -0.0516207386971 -0.00033912213484)
(0 -0.0591933707437 -0.000281820781137)
(0 -0.0574465936028 -0.000199221541416)
(0 -0.0443424287337 -0.000109801275199)
(2.56970555238e-18 -0.0260317003001 -4.39140310738e-05)
(0 -0.0110375673729 -1.16973760815e-05)
(0 -0.00215816348099 -1.9039552926e-06)
(0 -0.00166524247669 -2.53798483395e-06)
(0 0.000195980611851 0.00142702386756)
(0 0.000569293893755 0.00142493484486)
(0 0.00089994284171 0.00142148459113)
(0 0.00118106520932 0.00141727454819)
(0 0.00141243426042 0.00141238476749)
(0 0.00159814779956 0.00140625539482)
(0 0.00174452099167 0.00139778177689)
(0 0.001858615214 0.00138550945373)
(0 0.00194738340679 0.00136784673967)
(0 0.00201724648123 0.00134325450598)
(0 0.0020739168442 0.00131039923326)
(0 0.00212234030946 0.00126826716823)
(0 0.00216668168001 0.0012162412196)
(0 0.00221031708811 0.00115414301159)
(0 0.00225581881158 0.00108224266718)
(0 0.00230493033412 0.00100123927269)
(0 0.00235853484113 0.00091221572545)
(0 0.00241662171447 0.000816572627329)
(0 0.00247825445186 0.000715946857598)
(0 0.00254154069789 0.000612121186156)
(-2.53997393293e-17 0.00260360132332 0.000506931604616)
(0 0.00266053107686 0.000402178833969)
(2.79026586493e-17 0.00270733849583 0.000299549690487)
(-2.92451430087e-17 0.00273784748308 0.000200552739838)
(0 0.00274453693451 0.000106471082706)
(3.2126992799e-17 0.00271828738376 1.83334155753e-05)
(3.36727231128e-17 0.00264799361017 -6.30971008548e-05)
(0 0.0025199877101 -0.000137317966055)
(0 0.00231719549761 -0.000204069184908)
(0 0.00201791633981 -0.000263305034313)
(0 0.00159406696045 -0.00031515897071)
(0 0.00100865575612 -0.000359904493649)
(0 0.000212146728391 -0.000397914008031)
(-4.67880970467e-17 -0.000862775256108 -0.000429616539965)
(0 -0.00230870243138 -0.000455453410457)
(0 -0.00425405828523 -0.000475828176939)
(0 -0.00687729366554 -0.000491042234353)
(0 -0.0104238473634 -0.000501198165304)
(0 -0.0152195485944 -0.000506034779504)
(0 -0.021657211259 -0.000504623864883)
(0 -0.0300868686593 -0.000494807284552)
(0 -0.0404381094474 -0.000472242374682)
(1.78545479969e-17 -0.0513027512382 -0.000429319714123)
(0 -0.0586822168773 -0.000356300846114)
(0 -0.0567909390437 -0.000251371613816)
(0 -0.0437256508656 -0.00013827461439)
(0 -0.0256256163955 -5.52391833464e-05)
(0 -0.0108562248417 -1.4709355213e-05)
(-9.24608484641e-20 -0.00211735216201 -2.39678722498e-06)
(0 -0.00164380875112 -3.21100754242e-06)
(-2.08019550322e-17 0.000194891330591 0.00162159179321)
(-2.18028022853e-17 0.000566325418348 0.0016180920188)
(-2.28518034366e-17 0.000895702911945 0.00161231536226)
(0 0.00117595600856 0.00160544958682)
(0 0.00140630443306 0.00159810348902)
(0 0.00159014460453 0.00159009979284)
(0 0.00173311006293 0.00158053631956)
(0 0.00184170059354 0.00156798423617)
(0 0.00192247464605 0.00155072382657)
(0 0.00198164255498 0.00152696574061)
(0 0.00202489210002 0.00149503773808)
(3.4881403348e-17 0.002057324666 0.00145353230506)
(0 0.00208342914953 0.00140141597179)
(0 0.00210705644796 0.00133810234638)
(-4.01622873371e-17 0.00213137963848 0.00126349083553)
(0 0.00215883753332 0.00117797302549)
(0 0.00219106560436 0.00108240912972)
(0 0.00222882060728 0.00097807776088)
(0 0.00227190495794 0.000866603403519)
(2.53997393288e-17 0.00231909474748 0.0007498671208)
(0 0.00236807170889 0.000629906999236)
(2.79026586504e-17 0.00241535476038 0.000508815381988)
(0 0.00245622118088 0.000388639955761)
(0 0.00248460111522 0.000271295104081)
(0 0.00249292185839 0.00015848874165)
(-6.73454462264e-17 0.00247186975315 5.16681696731e-05)
(0 0.00241002657457 -4.80133766275e-05)
(0 0.0022933222741 -0.000139709675003)
(0 0.00210422423264 -0.000222875723981)
(-4.06359944412e-17 0.00182055077681 -0.000297246126927)
(4.25911194927e-17 0.00141374798396 -0.00036280116312)
(0 0.000846396123823 -0.000419724068282)
(0 6.86066307472e-05 -0.000468352465017)
(0 -0.000987173651786 -0.000509125658492)
(0 -0.00241360465318 -0.000542527445153)
(0 -0.00433891224721 -0.000569020641653)
(0 -0.00694090400208 -0.000588963420576)
(0 -0.0104635682477 -0.000602486029087)
(0 -0.0152297401878 -0.000609284200347)
(0 -0.0216262354055 -0.000608244335446)
(0 -0.0299915155652 -0.000596754179114)
(0 -0.0402352810653 -0.000569545407383)
(0 -0.0509264604223 -0.000517414874834)
(-1.96139555436e-17 -0.0580785838302 -0.000428728801277)
(1.02788222104e-17 -0.0560196997374 -0.000301755871506)
(0 -0.043003023271 -0.000165608823487)
(0 -0.0251512100173 -6.60709277524e-05)
(0 -0.0106446803854 -1.75871183902e-05)
(9.69094296694e-20 -0.00206985213923 -2.86944428718e-06)
(0 -0.00161870168643 -3.86751056722e-06)
(0 0.000193163672142 0.00178208477179)
(0 0.000561603905839 0.00177645019643)
(0 0.000888998421001 0.0017670789891)
(0 0.00116818053039 0.00175596564723)
(0 0.00139782944385 0.00174448424241)
(0 0.0015805806531 0.00173307183149)
(0 0.00172127770169 0.0017212390034)
(0 0.00182572148288 0.00170775971729)
(0 0.00189992376105 0.00169092309945)
(0 0.0019497266706 0.0016687822608)
(0 0.00198063754471 0.00163937301038)
(0 0.00199776621848 0.00160089479129)
(0 0.00200579479967 0.00155185372366)
(0 0.00200894260014 0.00149116950127)
(0 0.00201091020863 0.00141824774618)
(0 0.00201479936001 0.00133301898994)
(0 0.00202301223805 0.00123594539308)
(0 0.00203713715102 0.00112799679935)
(0 0.00205782830844 0.00101059869293)
(0 0.00208468628751 0.000885555916299)
(0 0.00211614297122 0.00075495742314)
(0 0.00214935045478 0.000621068606511)
(3.06522184969e-17 0.00218006770561 0.000486218637882)
(0 0.00220253174829 0.000352690546789)
(0 0.00220929176756 0.000222621370973)
(0 0.00219097449668 9.79185832882e-05)
(0 0.00213593687789 -1.98027025687e-05)
(0 0.00202974577389 -0.000129259300746)
(4.06359944436e-17 0.00185440203727 -0.000229515977067)
(4.25911194934e-17 0.00158719369127 -0.000319979484392)
(0 0.0011990147613 -0.000400373568486)
(0 0.000651914881784 -0.000470698623009)
(0 -0.000104458405562 -0.000531179603822)
(0 -0.00113800305502 -0.000582204818134)
(0 -0.00254153353557 -0.000624256028749)
(0 -0.0044431247792 -0.000657826314618)
(5.91801686319e-17 -0.00701991580029 -0.000683314833701)
(0 -0.0105142899941 -0.000700873834367)
(0 -0.0152456947263 -0.000710156768603)
(0 -0.0215941054441 -0.00070986776419)
(0 -0.0298847833177 -0.000696941946969)
(0 -0.0400048718212 -0.000665185255345)
(0 -0.0504978661687 -0.000603817535695)
(0 -0.0573926767881 -0.000499408552268)
(-1.07733685623e-17 -0.055147322753 -0.000350555411437)
(0 -0.0421893836171 -0.000191889232645)
(0 -0.0246188242999 -7.6440708233e-05)
(0 -0.0104076794853 -2.03388991343e-05)
(0 -0.00201677923795 -3.32349908839e-06)
(0 -0.00159043495484 -4.51099260729e-06)
(0 0.000190561795404 0.00191655938451)
(2.39512753207e-17 0.000554449534709 0.00190797673033)
(0 0.000878777238048 0.00189355740162)
(0 0.00115641835783 0.0018763073225)
(0 0.00138555496519 0.00185858691317)
(0 0.00156802723128 0.00184166990962)
(0 0.00170779797016 0.00182568945061)
(0 0.00180984111367 0.00180980868247)
(0 0.00187947015595 0.00179248117005)
(0 0.0019219931737 0.00177172256327)
(0 0.00194256370848 0.0017453583274)
(0 0.00194612558198 0.00171123618033)
(0 0.00193738576812 0.00166740197313)
(0 0.00192077836505 0.00161224061525)
(0 0.00190040232716 0.00154458359326)
(0 0.00187992787781 0.00146378381299)
(0 0.0018624738133 0.00136975789592)
(0 0.001850461959 0.0012629960091)
(0 0.00184545685126 0.00114453987705)
(0 0.00184799876802 0.00101593072367)
(2.92451430071e-17 0.00185743664372 0.000879130403821)
(3.06522184978e-17 0.00187176412473 0.000736420674744)
(3.2126992797e-17 0.00188745696325 0.000590287180693)
(-3.3672723112e-17 0.00189930301161 0.000443296009487)
(0 0.00190020714792 0.00029797134125)
(0 0.00188094227384 0.000156682599322)
(0 0.00182980357869 2.15485385744e-05)
(0 0.0017321053479 -0.000105636015696)
(-4.2591119495e-17 0.00156943564154 -0.000223447306246)
(4.46403117386e-17 0.00131855065035 -0.00033085260306)
(4.67880970454e-17 0.000949742140921 -0.000427204141314)
(0 0.000424440853175 -0.000512209846424)
(0 -0.000308282312953 -0.000585884425353)
(0 -0.00131679157421 -0.000648484016559)
(0 -0.00269416785679 -0.000700425631204)
(0 -0.00456841457379 -0.000742188303725)
(0 -0.00711601573049 -0.000774184504744)
(-3.25059250194e-17 -0.0105776409651 -0.000796574287989)
(3.40698869492e-17 -0.0152690142499 -0.000808963804924)
(0 -0.0215625169272 -0.000809873803483)
(0 -0.0297687401041 -0.00079578413666)
(-1.96139555457e-17 -0.0397499192214 -0.000759569501491)
(0 -0.0500221309732 -0.000688884109663)
(0 -0.0566333406809 -0.000568604514834)
(0 -0.0541864739348 -0.000397929893254)
(-5.91749430118e-18 -0.0412978312104 -0.00021719373549)
(0 -0.0240376151357 -8.63781554124e-05)
(-4.06288184217e-19 -0.0101494259518 -2.29725502058e-05)
(0 -0.00195912602581 -3.76045146709e-06)
(0 -0.00155945840996 -5.14477442702e-06)
(0 0.000186867420981 0.00203243937661)
(0 0.000544222001815 0.00202007817833)
(0 0.000864014562599 0.00199909705883)
(0 0.00113931871726 0.00197368117452)
(0 0.00136788949064 0.00194736347194)
(0 0.00155076480153 0.00192245156012)
(0 0.00169096016927 0.00189989856656)
(0 0.00179251322063 0.00187944382924)
(0 0.00185989996722 0.00185987332093)
(0 0.00189773401145 0.00183930788363)
(0 0.00191063950246 0.0018154754059)
(0 0.00190320879785 0.00178595126898)
(0 0.00187998458572 0.00174836430128)
(0 0.00184543064863 0.00170056970404)
(0 0.00180387278331 0.00164079067355)
(0 0.00175940271705 0.00156772940439)
(0 0.00171574503471 0.00148064705216)
(0 0.00167609157725 0.00137941160892)
(0 0.00164291035775 0.00126451265398)
(0 0.0016177371797 0.00113704261641)
(0 0.00160095785861 0.000998645447248)
(0 0.00159158707517 0.000851435318879)
(3.36727231119e-17 0.00158704613142 0.000697889968432)
(0 0.00158293588108 0.000540725312135)
(0 0.00157279252487 0.000382759668178)
(0 0.00154780238934 0.000226777028919)
(0 0.00149643669077 7.5399062919e-05)
(0 0.00140394765358 -6.90252438423e-05)
(4.46403117417e-17 0.00125164140846 -0.000204505096232)
(0 0.00101580778303 -0.000329463763754)
(0 0.000666137573166 -0.000442762751664)
(0 0.000163387335528 -0.000543694748505)
(5.38715996826e-17 -0.000544047615018 -0.000631947656732)
(0 -0.00152512319323 -0.000707542599853)
(2.95900843185e-17 -0.00287331768142 -0.000770747486556)
(0 -0.00471667310789 -0.000821963482032)
(0 -0.00723107159814 -0.000861572564292)
(-3.40698869512e-17 -0.0106554076481 -0.000889716099236)
(0 -0.0153014048714 -0.000905939153014)
(0 -0.0215331796247 -0.000908571774913)
(-3.92279110912e-17 -0.0296453278265 -0.000893630766683)
(0 -0.039473114233 -0.000853048796991)
(-4.30934742487e-17 -0.04950373571 -0.000772921987892)
(0 -0.0558082975837 -0.000636543922399)
(0 -0.0531483137951 -0.000444017602474)
(0 -0.0403399579607 -0.000241591861342)
(0 -0.0234156892988 -9.59104589992e-05)
(0 -0.00987364050697 -2.54953553778e-05)
(0 -0.00189777418711 -4.18170798278e-06)
(0 -0.00152616569028 -5.77203510973e-06)
(0 0.000181904404387 0.00213609089635)
(0 0.000530392431056 0.00211917190413)
(0 0.000843828246669 0.00209017688873)
(0 0.00111565501091 0.00205458419606)
(0 0.00134329407492 0.00201723428565)
(0 0.00152700420056 0.00198162659267)
(0 0.0016688175974 0.00194970798042)
(0 0.00177175364144 0.00192197274953)
(0 0.00183933422501 0.00189771269231)
(0 0.00187533499818 0.00187531343583)
(0 0.001883685631 0.00185254446876)
(0 0.00186844456668 0.00182682229815)
(0 0.00183379516429 0.00179544200256)
(0 0.00178402957723 0.0017557783161)
(4.84675527908e-17 0.00172350121094 0.00170545825254)
(-2.53997393308e-17 0.00165653653674 0.00164250619874)
(0 0.00158730367893 0.00156546092242)
(0 0.00151963965683 0.00147346277576)
(2.92451430096e-17 0.00145684117061 0.00136630879939)
(3.06522184968e-17 0.00140142573678 0.00124447355421)
(0 0.00135487081096 0.00110909428022)
(3.36727231143e-17 0.00131733808704 0.000961920406945)
(0 0.00128738802315 0.000805229374176)
(0 0.00126168524241 0.000641713036379)
(3.8770618473e-17 0.00123468817658 0.000474341339041)
(0 0.00119830544295 0.000306212164499)
(0 0.00114148616952 0.000140397850765)
(0 0.00104969075746 -2.02004351095e-05)
(0 0.000904160757988 -0.000172979770463)
(-4.90392190378e-17 0.000680868966889 -0.000315734938361)
(0 0.000348979260522 -0.000446723787105)
(0 -0.000131425996995 -0.000564695008053)
(0 -0.000812691846267 -0.000668877649739)
(0 -0.00176447903112 -0.00075893344961)
(0 -0.00308080201227 -0.000834872835374)
(0 -0.00488987646309 -0.000896931789285)
(0 -0.00736707390041 -0.000945397264089)
(0 -0.0107495009685 -0.000980348716271)
(3.7427172518e-17 -0.0153446639857 -0.0010012438472)
(0 -0.0215078247503 -0.00100620576263)
(0 -0.0295163938389 -0.000990773738167)
(0 -0.0391768701649 -0.000945922043011)
(0 -0.0489466057801 -0.000856193691275)
(0 -0.054924340963 -0.000703419242361)
(0 -0.0520427288398 -0.000488936029438)
(0 -0.0393260491837 -0.000265144375119)
(0 -0.0227602291104 -0.000105062009543)
(0 -0.00958361493878 -2.79139174783e-05)
(-1.16949586536e-19 -0.00183350632627 -4.58857152631e-06)
(0 -0.00149090094795 -6.39584740002e-06)
(0 0.000175555481113 0.00223267937193)
(0 0.000512593653165 0.00221053522722)
(0 0.000817562974565 0.00217224626197)
(0 0.00108444340925 0.00212463199216)
(0 0.00131043536801 0.0020739115081)
(0 0.00149507335917 0.00202488253638)
(0 0.00163940623421 0.00198062477444)
(0 0.00174538801267 0.001942548732)
(0 0.00181550099146 0.00191062317763)
(0 0.00185256579906 0.00188366863251)
(0 0.0018596734859 0.00185965631011)
(0 0.00184018067177 0.00183598670325)
(0 0.00179772315047 0.0018097405533)
(0 0.00173621759322 0.00177790264272)
(0 0.00165983224852 0.00173756062661)
(-2.66218003959e-17 0.0015729156619 0.0016860802445)
(0 0.0014798781867 0.00162125655095)
(0 0.00138502518576 0.00154143919726)
(0 0.00129234390274 0.0014456286842)
(0 0.00120524828673 0.00133354003479)
(0 0.00112628763982 0.00120563054828)
(-3.52928233577e-17 0.00105682565295 0.00106308919143)
(3.69908717009e-17 0.000996695778443 0.000907786734861)
(0 0.000943836332275 0.000742187893771)
(0 0.000893903392823 0.000569229370896)
(0 0.000839850425473 0.000392170567837)
(-4.46403117401e-17 0.000771449415631 0.000214426508208)
(0 0.000674707745904 3.93947326225e-05)
(0 0.000531106286172 -0.00012971083613)
(0 0.000316544641007 -0.000290006148942)
(0 -1.74562188041e-07 -0.000439051989288)
(0 -0.000459564319237 -0.000574928868479)
(0 -0.00111471618958 -0.000696266290063)
(0 -0.00203607469271 -0.000802223609491)
(0 -0.00331832026467 -0.000892420766951)
(3.40698869519e-17 -0.00508999125813 -0.000966814599245)
(-3.5709095988e-17 -0.00752607297468 -0.00102550716557)
(0 -0.0108619196674 -0.0010684510634)
(0 -0.0154006651248 -0.00109497329997)
(0 -0.0214882087974 -0.00110296128458)
(0 -0.0293837158167 -0.00108745327636)
(0 -0.0388633778143 -0.00103844233234)
(0 -0.0483542128668 -0.00093892173585)
(0 -0.0539874943067 -0.000769391411234)
(6.50061094789e-18 -0.0508785246784 -0.000532783322677)
(0 -0.0382652565481 -0.000287903533222)
(0 -0.0220776031966 -0.000113854346552)
(-4.67798346111e-19 -0.00928226113619 -3.02341315727e-05)
(0 -0.00176701689628 -4.98224296741e-06)
(0 -0.00145396475173 -7.01921772063e-06)
(0 0.000167771647453 0.00232616560849)
(-2.89042227913e-17 0.000490649879449 0.00229829122979)
(0 0.000784844073947 0.00224969492302)
(0 0.00104502516813 0.00218851263889)
(0 0.0012682997639 0.00212234087712)
(-3.4881403348e-17 0.00145356491063 0.00205732069366)
(0 0.00160092566756 0.00199775869259)
(0 0.00171126419534 0.00194611549508)
(0 0.00178597579138 0.00190319701809)
(0 0.00182684306745 0.00186843178594)
(0 0.00183600370988 0.00184016740477)
(0 0.00181596858471 0.00181595519377)
(0 0.00176965510655 0.0017928126371)
(0 0.00170040992448 0.0017674628934)
(-5.32436007909e-17 0.00161200275953 0.00173655352957)
(0 0.00150857922709 0.00169685624971)
(0 0.00139456500295 0.00164544768024)
(0 0.00127451719448 0.00157986935168)
(0 0.00115292159177 0.00149826343722)
(0 0.0010339368321 0.00139947979334)
(0 0.000921088438346 0.00128314947992)
(-3.69908717029e-17 0.000816917080846 0.00114972023267)
(0 0.000722585937096 0.00100045033761)
(0 0.000637451115997 0.000837359028457)
(0 0.00055859588355 0.000663133887772)
(0 0.000480322668164 0.000480998715199)
(0 0.000393584969749 0.000294548721554)
(0 0.000285322456589 0.000107563359441)
(0 0.000137634431342 -7.61899112282e-05)
(5.38715996827e-17 -7.33133776876e-05 -0.000253145652372)
(0 -0.000378809718906 -0.000420108530871)
(0 -0.00081978380495 -0.000574384906975)
(0 -0.00144999499466 -0.00071386594419)
(-3.2505925018e-17 -0.00234068966112 -0.000837053362771)
(0 -0.00358731177346 -0.000943021052812)
(0 -0.00531886824148 -0.00103130450948)
(0 -0.0077101055378 -0.00110170160382)
(0 -0.0109947054764 -0.00115394609099)
(0 -0.0154713364646 -0.00118716854547)
(0 -0.0214761113939 -0.00119897485862)
(-2.25834181778e-17 -0.0292490188079 -0.00118386653639)
(2.36699772067e-17 -0.0385346479373 -0.00113082460623)
(0 -0.0477296556573 -0.00102129494023)
(0 -0.0530031391948 -0.000834594344167)
(0 -0.0496635853568 -0.00057564080701)
(0 -0.0371657449203 -0.000309914037667)
(0 -0.0213734631304 -0.000122306415924)
(0 -0.00897215456559 -3.24612430158e-05)
(0 -0.00169892204764 -5.3638351172e-06)
(0 -0.0014156192043 -7.64513330395e-06)
(-2.89042227917e-17 0.000158574938462 0.00241936299799)
(-3.02948955405e-17 0.000464587731324 0.00238545356644)
(0 0.000745603393625 0.0023258779716)
(0 0.000997114908373 0.00224999025359)
(0 0.00121627029489 0.00216668721397)
(-3.65596569873e-17 0.00140144550659 0.00208342997074)
(0 0.0015518821345 0.00200579184039)
(0 0.00166742815421 0.00193737999648)
(0 0.0017483875659 0.00187997686781)
(0 0.00179546199511 0.00183378620307)
(0 0.00180975716044 0.00179771347603)
(-4.846755279e-17 0.00179282590978 0.00176964509583)
(0 0.00174672274429 0.00174671265098)
(0 0.00167404925209 0.00172553963145)
(2.79026586497e-17 0.00157797418538 0.00170247233485)
(0 0.0014622155798 0.00167379702745)
(6.13044369944e-17 0.00133097535135 0.001635943959)
(0 0.00118881938976 0.00158567677315)
(-3.36727231136e-17 0.00104049847157 0.00152026389891)
(0 0.000890707413101 0.00143762701531)
(0 0.000743781793034 0.00133646074366)
(0 0.000603333220691 0.00121631744314)
(0 0.000471825274664 0.0010776513138)
(0 0.000350092450102 0.000921817050996)
(-4.46403117384e-17 0.000236802993718 0.000751020050237)
(0 0.000127862163996 0.000568217739047)
(4.90392190387e-17 1.57435059057e-05 0.000376974974064)
(0 -0.00011128010595 0.000181280479914)
(0 -0.00027005950461 -1.46644080585e-05)
(0 -0.000483739056797 -0.000206669426563)
(-2.95900843181e-17 -0.000783322191415 -0.000390773266607)
(0 -0.00120985952389 -0.000563436117289)
(0 -0.00181758977233 -0.000721687935792)
(0 -0.00267848890143 -0.000863215617349)
(0 -0.00388880073689 -0.000986374474429)
(0 -0.00557811927237 -0.0010901091546)
(-7.84558221737e-17 -0.00792110582491 -0.00117376179395)
(0 -0.0111498856016 -0.00123672313159)
(0 -0.0155586293351 -0.00127783316063)
(-2.25834181772e-17 -0.021473324705 -0.00129434777772)
(0 -0.0291139832923 -0.00128017943802)
(-2.48088139958e-17 -0.0381925413115 -0.00122325586146)
(0 -0.0470757215019 -0.0011034767753)
(0 -0.0519761162182 -0.000899141058997)
(0 -0.0484050022096 -0.000617576681865)
(3.74238676888e-18 -0.0360348146928 -0.000331214692056)
(0 -0.0206528260931 -0.000130435125487)
(0 -0.00865557201094 -3.4599986305e-05)
(1.3465521589e-19 -0.00162976828301 -5.73439851663e-06)
(0 -0.0013760923192 -8.27661696038e-06)
(0 0.000148055464645 0.00251401784884)
(0 0.000434630856046 0.00247399267689)
(0 0.000700080096369 0.00240315877111)
(0 0.000940817658152 0.00231192142281)
(0 0.00115416868588 0.00221032671288)
(0 0.00133812885422 0.00210706131519)
(0 0.00149119542221 0.0020089435689)
(0 0.00161226488594 0.00192077636037)
(0 0.00170059159971 0.00184542652029)
(-4.62426728657e-17 0.00175579740004 0.00178402403027)
(0 0.00177791870546 0.0017362111696)
(0 0.001767475894 0.00170040301435)
(0 0.00172554964596 0.00167404212097)
(0 0.0016538496943 0.00165384251154)
(0 0.00155476255257 0.00163602368667)
(3.06522184969e-17 0.00143136607214 0.00161653674928)
(0 0.00128740003148 0.00159128377782)
(0 0.0011271833924 0.00155632961055)
(0 0.000955470390942 0.00150810302624)
(0 0.000777239219407 0.00144358237707)
(0 0.000597408669817 0.00136045928439)
(0 0.000420479631419 0.00125727314437)
(0 0.000250099612913 0.00113350891121)
(4.46403117391e-17 8.85492127812e-05 0.000989650978258)
(0 -6.385090631e-05 0.000827187007524)
(0 -0.00020941642178 0.000648557391077)
(5.13986495608e-17 -0.000353869132308 0.000457048813939)
(0 -0.000507222357362 0.000256634228777)
(0 -0.000684825825899 5.17663659144e-05)
(0 -0.000908649176296 -0.000152862683317)
(0 -0.00120893698166 -0.000352577908931)
(0 -0.00162644550968 -0.000542971563822)
(0 -0.00221557548425 -0.000720122190623)
(0 -0.0030488408057 -0.000880757035303)
(0 -0.00422322715535 -0.001022333132)
(0 -0.0058689756164 -0.00114301187923)
(0 -0.0081607977833 -0.00124149528078)
(0 -0.0113293986443 -0.00131667038151)
(0 -0.0156644733341 -0.00136695774812)
(0 -0.0214816318095 -0.00138916557868)
(0 -0.0289802426793 -0.00137654288013)
(2.60024437906e-17 -0.0378387860337 -0.00131590877477)
(-1.36267514286e-17 -0.0463949300236 -0.0011856163428)
(0 -0.0509108009952 -0.000963131724174)