/*--------------------------------*- C++ -*----------------------------------*\
| =========                 |                                                 |
| \\      /  F ield         | OpenFOAM: The Open Source CFD Toolbox           |
|  \\    /   O peration     | Version:  3.0.1                                 |
|   \\  /    A nd           | Web:      www.OpenFOAM.org                      |
|    \\/     M anipulation  |                                                 |
\*---------------------------------------------------------------------------*/
FoamFile
{
    version     2.0;
    format      ascii;
    class       volVectorField;
    location    "50000";
    object      grad(p);
}
// * * * * * * * * * * * * * * * * * * * * * * * * * * * * * * * * * * * * * //

dimensions      [0 1 -2 0 0 0 0];

internalField   nonuniform List<vector> 
2500
(
(0 2.63013677968e-14 1.78337989577e-14)
(0 3.87020396212e-14 2.27917631167e-15)
(-8.21579967201e-30 7.37030576685e-15 -3.27430827809e-15)
(0 -1.95407428307e-14 -3.28648418546e-15)
(0 -3.54376360815e-14 -3.34401662622e-16)
(-7.56770715532e-29 -4.36448554224e-14 8.02507844321e-16)
(-7.93181326494e-29 -4.18639297919e-14 5.32457773498e-15)
(-8.31343766051e-29 -4.86261939188e-14 3.29736826828e-15)
(0 -6.09693070507e-14 2.84636147357e-15)
(0 -6.29236920265e-14 2.00612138275e-16)
(0 -5.72336672095e-14 4.9737642848e-15)
(0 -5.2832194041e-14 2.47286518743e-15)
(-2.10305899904e-28 -4.74679187711e-14 5.99855535693e-15)
(0 -4.26236011868e-14 5.02731197594e-15)
(0 -2.89298514349e-14 6.13489714783e-15)
(0 -4.67985597531e-15 5.28969634813e-15)
(0 1.44288709084e-14 4.25152996266e-15)
(0 3.43334547055e-14 3.68597343296e-15)
(0 4.99748720632e-14 1.07613173243e-15)
(0 6.3892590036e-14 -7.77175762205e-16)
(0 8.07438096794e-14 -1.1872288367e-15)
(0 9.73255917584e-14 -1.81652275845e-15)
(0 1.13581679992e-13 -2.03472914434e-15)
(0 1.33177524564e-13 -1.75772967327e-15)
(0 1.60758873444e-13 -3.49253374049e-16)
(0 1.89817002312e-13 -1.31834246329e-15)
(0 2.17380378897e-13 -1.02348897658e-15)
(0 2.4690559611e-13 -1.8936686069e-15)
(0 2.74869091521e-13 -2.67997454647e-15)
(0 2.99240153328e-13 -4.97956007042e-15)
(0 3.19862462579e-13 -6.73465983268e-15)
(0 3.38639708684e-13 -7.8224558476e-15)
(0 3.55292875783e-13 -8.70297597874e-15)
(0 3.7127260376e-13 -9.24271097809e-15)
(0 3.86232331541e-13 -9.85133397469e-15)
(0 3.97619564206e-13 -1.05562950432e-14)
(0 4.05248365008e-13 -1.12829454278e-14)
(0 4.08894631823e-13 -1.18422677617e-14)
(0 4.06514685446e-13 -1.28318849196e-14)
(0 3.97096315666e-13 -1.34702184389e-14)
(0 3.79047464174e-13 -1.42731102727e-14)
(0 3.48860935181e-13 -1.49812214535e-14)
(0 3.04397281294e-13 -1.56858964917e-14)
(0 2.45498356971e-13 -1.61612744267e-14)
(0 1.79707429197e-13 -1.65468807894e-14)
(0 1.23651100873e-13 -1.67879101913e-14)
(0 9.0645876787e-14 -1.69467840176e-14)
(0 8.18409177281e-14 -1.70634163113e-14)
(0 8.18373306402e-14 -1.71826172005e-14)
(0 4.03960902521e-14 -1.72961517222e-14)
(0 1.07467451508e-14 2.97812320717e-14)
(0 1.73267368364e-14 8.053458517e-15)
(0 1.53624989282e-15 -1.26506261772e-15)
(0 -1.61551043306e-14 -4.96336719744e-16)
(0 -3.06666078202e-14 3.30301723439e-15)
(-7.93181326491e-29 -3.65530777041e-14 7.40964779302e-15)
(0 -3.88316607301e-14 9.45839240679e-15)
(8.71342320194e-29 -5.19403604584e-14 9.08879904402e-15)
(0 -6.54491119762e-14 1.26593962159e-14)
(-1.91441077505e-28 -5.94909998463e-14 1.577651536e-14)
(0 -5.39489272407e-14 1.88346236536e-14)
(-2.103058999e-28 -5.09212858675e-14 1.80975549325e-14)
(-4.40848751758e-28 -4.32628959313e-14 1.99406775758e-14)
(0 -4.22903223646e-14 1.90798542874e-14)
(0 -2.85214293157e-14 2.20082900288e-14)
(0 -8.41250599005e-15 1.92111744496e-14)
(0 1.11285305343e-14 1.48538276725e-14)
(0 2.73322681614e-14 8.70198611344e-15)
(0 3.98550859904e-14 2.91769834126e-15)
(0 5.85731015039e-14 6.90468890672e-16)
(0 7.81317303498e-14 -1.66072692993e-15)
(0 9.51295024543e-14 -1.35853640693e-15)
(0 1.1377515708e-13 -5.29991557311e-16)
(-1.84807426774e-28 1.38107235482e-13 3.78100760862e-16)
(0 1.61916361292e-13 1.21877647006e-15)
(0 1.87778213329e-13 6.44891397879e-16)
(0 2.15382242074e-13 -2.07773111924e-15)
(0 2.41156402055e-13 -3.69996556609e-15)
(-1.16877318938e-28 2.63500689374e-13 -6.69258404892e-15)
(-1.22500653057e-28 2.83811163415e-13 -1.07786572655e-14)
(0 3.08550960938e-13 -1.41009701446e-14)
(0 3.3040614188e-13 -1.78734933721e-14)
(0 3.49085779712e-13 -2.07142674733e-14)
(0 3.65975066112e-13 -2.3202122936e-14)
(0 3.79879039915e-13 -2.59536006006e-14)
(0 3.90372181407e-13 -2.82777651676e-14)
(0 3.98448318324e-13 -3.09139119489e-14)
(-7.13614558322e-28 4.00227463357e-13 -3.34474870587e-14)
(0 3.97077115738e-13 -3.59981671487e-14)
(0 3.88271017909e-13 -3.8335911881e-14)
(0 3.69389908517e-13 -4.05503337965e-14)
(0 3.3938325361e-13 -4.27082068166e-14)
(9.02619096936e-28 2.96137411392e-13 -4.44688062474e-14)
(0 2.39168454989e-13 -4.60809608846e-14)
(0 1.7489316524e-13 -4.7202363003e-14)
(0 1.20429015527e-13 -4.79766483543e-14)
(0 8.83164155714e-14 -4.84864162965e-14)
(0 7.97428694687e-14 -4.88625968905e-14)
(0 7.96690193826e-14 -4.92168050262e-14)
(0 3.93128625171e-14 -4.95366771617e-14)
(0 4.85696979401e-15 2.27800028494e-14)
(0 7.67192493463e-15 1.50565236685e-14)
(0 -1.41031321347e-15 1.10825547787e-14)
(0 -1.44058683663e-14 1.18210976082e-14)
(0 -2.63165221383e-14 1.32051665443e-14)
(0 -3.611854529e-14 1.76003937451e-14)
(0 -3.97198070956e-14 1.69124897282e-14)
(0 -4.45122299954e-14 1.79754558501e-14)
(0 -5.2110146103e-14 2.32104810232e-14)
(0 -5.39812215635e-14 3.04788279056e-14)
(0 -5.37542863673e-14 2.87606645293e-14)
(0 -5.09208138183e-14 3.01068468326e-14)
(0 -4.57696102114e-14 2.90706831725e-14)
(0 -3.89050020944e-14 2.94606728262e-14)
(0 -2.89168286916e-14 3.0597393375e-14)
(0 -1.8416403632e-14 2.61068755597e-14)
(0 -6.58415206417e-15 2.16429360769e-14)
(0 9.29507539257e-15 1.54388639254e-14)
(0 3.22910145832e-14 1.2119212248e-14)
(0 5.32191052555e-14 1.16252047987e-14)
(0 7.5883695765e-14 8.99243937593e-15)
(0 1.00083446876e-13 7.22188071901e-15)
(1.84807426772e-28 1.18147397158e-13 6.07106966304e-15)
(0 1.38203741683e-13 5.09639086263e-15)
(0 1.61484524037e-13 2.54536518279e-15)
(5.31966052385e-29 1.79622388569e-13 2.32633070853e-16)
(-1.39390151604e-29 2.03626985104e-13 -2.86453399435e-15)
(0 2.31235148759e-13 -6.35187754925e-15)
(-1.22500653063e-28 2.4966057332e-13 -1.12307797923e-14)
(-2.56789086822e-28 2.71615621346e-13 -1.50791938243e-14)
(0 2.92219959199e-13 -1.98773437783e-14)
(0 3.11890000404e-13 -2.48039931855e-14)
(0 3.32697501244e-13 -3.01384524112e-14)
(0 3.47974373709e-13 -3.50685155287e-14)
(3.24801016103e-28 3.62605224361e-13 -3.98946379545e-14)
(0 3.73301669439e-13 -4.45131658426e-14)
(0 3.78786542204e-13 -4.90152412976e-14)
(-7.47948791302e-28 3.81527367096e-13 -5.37177838186e-14)
(0 3.78933189609e-13 -5.78386574846e-14)
(0 3.70183762072e-13 -6.18208994888e-14)
(0 3.51910263153e-13 -6.55351627274e-14)
(0 3.23403779719e-13 -6.88671681318e-14)
(0 2.81414085062e-13 -7.17298636812e-14)
(0 2.26067374257e-13 -7.41842238993e-14)
(0 1.65575334953e-13 -7.59858395534e-14)
(0 1.13632417834e-13 -7.71876890968e-14)
(0 8.33915032955e-14 -7.79802709655e-14)
(0 7.55510765714e-14 -7.85603920808e-14)
(0 7.57496671787e-14 -7.91131342028e-14)
(-6.57263973708e-28 3.74345749781e-14 -7.96154010135e-14)
(0 3.44570879251e-15 1.86893886053e-14)
(0 6.06132252805e-15 1.96040207482e-14)
(0 -1.65201359438e-15 2.47509100433e-14)
(0 -1.38856028269e-14 2.34325684135e-14)
(0 -2.41879204702e-14 2.37355806311e-14)
(0 -3.24968423124e-14 2.56923108421e-14)
(0 -3.83817004931e-14 2.80662095894e-14)
(0 -4.36950470743e-14 2.78352281822e-14)
(0 -4.857951413e-14 2.96352146623e-14)
(0 -5.19897262976e-14 3.18153016935e-14)
(0 -5.43668620664e-14 3.28552793061e-14)
(0 -5.05423724783e-14 3.3732446562e-14)
(0 -4.43356559359e-14 3.30439263532e-14)
(0 -3.96049020459e-14 3.27371654474e-14)
(0 -3.45256222512e-14 3.45687296904e-14)
(0 -2.49867517839e-14 3.49634406821e-14)
(0 -9.88563860185e-15 3.50716707565e-14)
(0 7.80847863834e-15 3.47655222865e-14)
(0 3.1742482589e-14 3.33109598734e-14)
(0 5.14269350443e-14 2.84509867573e-14)
(0 6.80505907706e-14 2.63045900713e-14)
(0 8.84212528642e-14 1.9881497323e-14)
(0 1.08670783879e-13 1.48747761228e-14)
(0 1.28773302589e-13 1.16552058013e-14)
(0 1.48550044384e-13 5.97629820971e-15)
(0 1.71773444847e-13 4.55691120847e-16)
(0 1.94943252322e-13 -3.08213706181e-15)
(0 2.14133873972e-13 -8.74777464044e-15)
(0 2.34011604291e-13 -1.51254539325e-14)
(0 2.53128284767e-13 -2.08356622014e-14)
(0 2.72372220873e-13 -2.76304998787e-14)
(0 2.90350208041e-13 -3.37624470738e-14)
(0 3.07303882085e-13 -4.07239037091e-14)
(0 3.24247163001e-13 -4.75675396e-14)
(0 3.37596556723e-13 -5.39002667157e-14)
(0 3.47585746824e-13 -6.06975670142e-14)
(-3.73974395604e-28 3.53080452521e-13 -6.69801539908e-14)
(0 3.54786466329e-13 -7.31309608342e-14)
(0 3.53281967281e-13 -7.88510858797e-14)
(0 3.4468877146e-13 -8.42127379401e-14)
(0 3.27583028378e-13 -8.92735697205e-14)
(0 3.00885471173e-13 -9.36768801711e-14)
(0 2.61488902254e-13 -9.76429643413e-14)
(0 2.10117068362e-13 -1.00581528306e-13)
(0 1.53445122624e-13 -1.02877181498e-13)
(0 1.05488941777e-13 -1.04384447535e-13)
(1.19661239552e-27 7.75253370186e-14 -1.0535421009e-13)
(0 7.03837269611e-14 -1.06090605768e-13)
(0 7.05466013626e-14 -1.06818269187e-13)
(0 3.48643962449e-14 -1.07492177247e-13)
(0 5.58655494891e-15 2.63209430961e-14)
(0 1.30775633649e-14 3.80120397318e-14)
(0 2.00597180804e-15 4.32293166958e-14)
(0 -1.53367973921e-14 3.46580053479e-14)
(0 -2.38649228409e-14 3.25111719913e-14)
(0 -3.12935926651e-14 3.28476324393e-14)
(0 -3.73165074381e-14 3.36582904338e-14)
(0 -4.25684580947e-14 3.42805253125e-14)
(0 -4.70183692322e-14 3.50054302309e-14)
(0 -4.97535983263e-14 3.50606381924e-14)
(0 -5.11848762722e-14 3.71095365161e-14)
(0 -5.06873470569e-14 3.73118479047e-14)
(0 -4.71747559395e-14 3.28590527979e-14)
(0 -3.64751320018e-14 3.84431419049e-14)
(0 -2.55821892722e-14 4.30361725434e-14)
(0 -1.78659324372e-14 4.45462069778e-14)
(0 -7.10943662796e-15 4.66622739476e-14)
(0 5.85456662652e-15 4.43147629197e-14)
(0 1.96229228497e-14 4.32685514373e-14)
(0 3.87498432928e-14 3.66514843947e-14)
(1.84807426771e-28 5.6693206268e-14 3.3938031679e-14)
(0 7.36041677028e-14 2.79458437763e-14)
(-2.03018561656e-28 9.81845969475e-14 2.39208588854e-14)
(1.06393210476e-28 1.15373044073e-13 1.77746370913e-14)
(0 1.31545227357e-13 1.1039984186e-14)
(-5.84386594691e-29 1.54504422578e-13 5.61725882879e-15)
(-3.06251632653e-29 1.76583881072e-13 -2.78805082318e-15)
(1.60493179265e-29 1.94053542172e-13 -1.02224105901e-14)
(0 2.10756004178e-13 -1.80545914031e-14)
(0 2.29224020993e-13 -2.56271611726e-14)
(0 2.46444317645e-13 -3.39721742032e-14)
(0 2.63143595019e-13 -4.09239541709e-14)
(0 2.78844662838e-13 -4.83088603653e-14)
(-3.4042821096e-28 2.94215533377e-13 -5.62041095253e-14)
(0 3.06351667706e-13 -6.44236089604e-14)
(0 3.14685831732e-13 -7.26588228635e-14)
(0 3.20344489608e-13 -8.07150632017e-14)
(0 3.23032388125e-13 -8.85343015555e-14)
(0 3.21717923015e-13 -9.57324522299e-14)
(0 3.13769272398e-13 -1.02796229244e-13)
(0 2.98265673291e-13 -1.09057573004e-13)
(0 2.73663608909e-13 -1.14673213895e-13)
(5.19635737784e-28 2.38479550355e-13 -1.19468326487e-13)
(0 1.9192805679e-13 -1.23252657797e-13)
(0 1.39629398873e-13 -1.26159865823e-13)
(0 9.59297284389e-14 -1.2807488356e-13)
(0 7.0588256544e-14 -1.2934095232e-13)
(-6.57263973769e-28 6.40062123986e-14 -1.30303183833e-13)
(0 6.41735940469e-14 -1.3123231275e-13)
(0 3.17323017117e-14 -1.32077638137e-13)
(-3.78385357766e-29 1.32317260494e-14 4.37874387187e-14)
(-3.96590663246e-29 2.06024068385e-14 4.79701899852e-14)
(0 -4.75528023673e-15 4.79306836204e-14)
(0 -2.38029523191e-14 4.01609524544e-14)
(0 -2.58849169639e-14 3.90923090562e-14)
(0 -3.12554859712e-14 3.91468383199e-14)
(0 -3.67995914077e-14 3.96145712807e-14)
(0 -4.21251287416e-14 4.02235484882e-14)
(0 -4.76065737675e-14 4.09796010485e-14)
(0 -4.9228893613e-14 4.18947770939e-14)
(0 -5.13610282835e-14 4.28792623292e-14)
(-1.26897806142e-28 -5.64679596983e-14 4.40901793538e-14)
(0 -4.25207425384e-14 4.5589158595e-14)
(0 -2.43179672836e-14 4.82020727641e-14)
(2.92219100354e-28 -2.46883519733e-14 4.71822987879e-14)
(0 -1.86957414156e-14 5.013548849e-14)
(0 -1.03356831548e-14 4.78554642386e-14)
(0 1.66581491163e-15 4.6553092074e-14)
(0 1.64833889081e-14 4.30734094707e-14)
(-1.84807426768e-28 3.25785280501e-14 4.14882003521e-14)
(0 4.93291843671e-14 3.63163064252e-14)
(0 6.60844181203e-14 3.21328294607e-14)
(0 8.4921492611e-14 2.53181071743e-14)
(0 9.73913895407e-14 1.97273162243e-14)
(0 1.17443340968e-13 1.32784180723e-14)
(6.12503265314e-29 1.34552104321e-13 5.890822676e-15)
(0 1.50647885186e-13 -2.41787838494e-15)
(0 1.69226554025e-13 -1.068886328e-14)
(0 1.86471741604e-13 -1.99145176523e-14)
(-1.47832886582e-28 2.01623861904e-13 -2.89122736009e-14)
(1.54945590085e-28 2.20576456306e-13 -3.70887285272e-14)
(0 2.39248096846e-13 -4.65793620423e-14)
(0 2.5030292055e-13 -5.57254493351e-14)
(0 2.61325203556e-13 -6.49364423335e-14)
(0 2.70326682917e-13 -7.46084883838e-14)
(0 2.77776136524e-13 -8.41273178823e-14)
(0 2.81826552566e-13 -9.36354746207e-14)
(0 2.84216174746e-13 -1.02274359034e-13)
(0 2.82987555117e-13 -1.10829593582e-13)
(0 2.7593179387e-13 -1.19002100105e-13)
(0 2.63321265917e-13 -1.26407029797e-13)
(0 2.41866824527e-13 -1.33067313442e-13)
(5.44637041742e-28 2.1058079423e-13 -1.38707283322e-13)
(-1.14168247346e-27 1.6854212929e-13 -1.43432693152e-13)
(5.9830619781e-28 1.22093435622e-13 -1.46796127862e-13)
(0 8.38108560569e-14 -1.49051077952e-13)
(0 6.15884047832e-14 -1.50514547112e-13)
(0 5.61573968835e-14 -1.51640087685e-13)
(7.22031516354e-28 5.65623414859e-14 -1.5272411477e-13)
(0 2.80374398957e-14 -1.53731355495e-13)
(0 9.24440411184e-15 6.27040310886e-14)
(0 1.66971522817e-14 4.27609970549e-14)
(-8.71342320208e-29 -5.08523679867e-15 3.74343377256e-14)
(0 -2.34463162281e-14 4.32402875258e-14)
(0 -2.48784077234e-14 4.42477395952e-14)
(0 -3.07720843108e-14 4.46720996406e-14)
(0 -3.61867686835e-14 4.5074444695e-14)
(0 -4.10792754195e-14 4.56567807111e-14)
(0 -4.51610861499e-14 4.64782830924e-14)
(0 -4.74877129813e-14 4.83099608685e-14)
(0 -4.84732581938e-14 4.82253191661e-14)
(0 -4.74338547939e-14 5.05233903119e-14)
(0 -4.13432693893e-14 5.64087515996e-14)
(0 -3.37715769591e-14 5.30891429613e-14)
(0 -2.25185025526e-14 5.03306090855e-14)
(0 -1.70439392808e-14 5.13415547537e-14)
(0 -1.3089113159e-14 4.91651258355e-14)
(0 -2.63715571363e-15 4.94242118064e-14)
(0 1.04431587808e-14 4.55162599197e-14)
(0 2.55611220354e-14 4.43930116218e-14)
(0 3.79041598151e-14 3.71614313364e-14)
(0 5.03396452187e-14 3.35962678192e-14)
(-1.11512121282e-28 7.06937605601e-14 2.47698665655e-14)
(0 8.70936742466e-14 2.18343281433e-14)
(0 9.7831364856e-14 1.43207612859e-14)
(0 1.14281102173e-13 7.53420421028e-15)
(0 1.31938246593e-13 3.67242213814e-16)
(0 1.44784928524e-13 -8.42843722061e-15)
(3.69582216477e-29 1.57183988502e-13 -1.66465639042e-14)
(7.74727950436e-29 1.7618440641e-13 -2.82401601592e-14)
(0 1.89275552292e-13 -3.75816698763e-14)
(0 2.00286457968e-13 -4.95557511589e-14)
(0 2.13741050026e-13 -6.11236055417e-14)
(0 2.23893545136e-13 -7.25918402871e-14)
(0 2.31455004698e-13 -8.36524232508e-14)
(0 2.3686692039e-13 -9.4670721499e-14)
(0 2.42563723834e-13 -1.05167193419e-13)
(0 2.45687877778e-13 -1.14796800463e-13)
(0 2.42922601234e-13 -1.24497704137e-13)
(0 2.36907044859e-13 -1.33169940259e-13)
(0 2.2557175642e-13 -1.41385821529e-13)
(0 2.07089656207e-13 -1.4869043167e-13)
(0 1.79694356415e-13 -1.55214535305e-13)
(0 1.43909330402e-13 -1.60435746348e-13)
(-6.27092584172e-28 1.04671478543e-13 -1.64115637989e-13)
(0 7.16911303631e-14 -1.66568224939e-13)
(0 5.2859006901e-14 -1.68194187505e-13)
(0 4.811581729e-14 -1.69436375588e-13)
(0 4.84248777849e-14 -1.70672368506e-13)
(0 2.39649531222e-14 -1.71834358758e-13)
(-8.31343766051e-29 -1.9945800792e-15 6.88797894928e-14)
(8.71342320194e-29 1.16858809119e-15 5.43286047545e-14)
(0 -4.17064827679e-15 4.2352322805e-14)
(0 -1.81005391869e-14 4.95001727079e-14)
(0 -2.45774358797e-14 4.95550172514e-14)
(0 -3.04631258758e-14 4.98620139737e-14)
(0 -3.580524846e-14 4.99991235461e-14)
(0 -4.06337558915e-14 5.04498524882e-14)
(0 -4.46211139919e-14 5.03255712838e-14)
(0 -4.72342482162e-14 5.03897653614e-14)
(0 -4.85526272935e-14 4.97126853393e-14)
(0 -4.58358281418e-14 4.73094053913e-14)
(0 -3.94234041675e-14 4.85347278284e-14)
(0 -3.2985744025e-14 5.12456014893e-14)
(0 -2.69494272759e-14 5.19055510749e-14)
(0 -2.04697672457e-14 4.86657570242e-14)
(0 -1.3369717303e-14 4.90709509957e-14)
(0 -4.67019239471e-15 4.76765825829e-14)
(0 7.6790117644e-15 4.6693749776e-14)
(0 1.69611996775e-14 4.3186661751e-14)
(-1.0639321047e-28 2.86003940772e-14 3.97986208196e-14)
(-1.11512121285e-28 4.06173945104e-14 3.6474043414e-14)
(-1.16877318931e-28 6.01812283215e-14 3.12030041292e-14)
(1.22500653058e-28 7.39899123074e-14 2.45384140834e-14)
(0 8.40280789064e-14 1.75012408229e-14)
(0 1.00307120956e-13 1.0007904287e-14)
(0 1.09773963391e-13 1.98277508645e-15)
(0 1.23544875924e-13 -7.62786035353e-15)
(-3.87363975233e-29 1.30482056303e-13 -1.76492564107e-14)
(0 1.40327652655e-13 -2.80476906906e-14)
(8.51070527376e-29 1.54623626808e-13 -4.06146807932e-14)
(0 1.63023079652e-13 -5.15530630525e-14)
(0 1.7225986405e-13 -6.37408243292e-14)
(0 1.81355911799e-13 -7.58873118595e-14)
(0 1.881338122e-13 -8.82966169212e-14)
(0 1.93817393741e-13 -9.98999682294e-14)
(0 1.99582702848e-13 -1.11186739082e-13)
(-2.36511732651e-28 2.01379487867e-13 -1.22348745617e-13)
(2.47891053363e-28 2.00501281374e-13 -1.33327869928e-13)
(0 1.96392128827e-13 -1.43317871358e-13)
(0 1.86754320882e-13 -1.52498560673e-13)
(-2.85420618393e-28 1.70381676061e-13 -1.60691864648e-13)
(0 1.47027277283e-13 -1.67670983214e-13)
(0 1.18129021802e-13 -1.73436660522e-13)
(0 8.5729293821e-14 -1.77619640724e-13)
(-3.44443501741e-28 5.84650376538e-14 -1.80424377812e-13)
(0 4.28865936238e-14 -1.82288510814e-13)
(-3.78385357761e-28 3.91633920397e-14 -1.83723528029e-13)
(0 3.93391866271e-14 -1.85135981996e-13)
(0 1.94878169685e-14 -1.86457385174e-13)
(0 -1.74379528516e-15 6.40973239879e-14)
(0 -3.52181150762e-15 6.47060548617e-14)
(0 -8.42598529428e-15 5.5250230926e-14)
(0 -1.75043533251e-14 5.55122352508e-14)
(0 -2.45525150747e-14 5.43234860016e-14)
(0 -3.0366460982e-14 5.48257318118e-14)
(0 -3.56144061407e-14 5.43002363335e-14)
(0 -4.07530668174e-14 5.54390038834e-14)
(0 -4.51932975338e-14 5.36848137506e-14)
(0 -4.81525954069e-14 5.31629497671e-14)
(0 -5.19878273306e-14 5.3261984077e-14)
(0 -4.86489135177e-14 5.38241185769e-14)
(0 -3.63475660991e-14 5.31270085735e-14)
(0 -2.9431738314e-14 5.0208392308e-14)
(0 -2.63486786112e-14 4.78403378754e-14)
(0 -2.11127758944e-14 4.94902561035e-14)
(0 -1.46402795332e-14 4.61468851152e-14)
(0 -6.43126392823e-15 4.67150353546e-14)
(0 2.86307758002e-15 4.38726483878e-14)
(0 1.33310280492e-14 4.14578066344e-14)
(0 2.53984527467e-14 4.1812953308e-14)
(0 3.35924621551e-14 3.6760333286e-14)
(-1.22500653058e-28 4.65480087758e-14 3.48362285003e-14)
(0 5.80802579985e-14 2.57775567558e-14)
(0 6.5614571953e-14 1.84487145485e-14)
(0 7.82838081495e-14 1.04059452824e-14)
(0 8.87529594032e-14 9.83778099884e-16)
(0 9.46899885496e-14 -8.73262286184e-15)
(2.03000635073e-29 1.02412169642e-13 -2.02600004697e-14)
(0 1.11307113891e-13 -2.92575034913e-14)
(8.92018197846e-29 1.201134247e-13 -4.18985198624e-14)
(0 1.286938339e-13 -5.34825750647e-14)
(0 1.34867049894e-13 -6.6089293044e-14)
(0 1.40509613558e-13 -7.85056950098e-14)
(2.15296199301e-28 1.46091751469e-13 -9.11309464417e-14)
(0 1.51551165807e-13 -1.03561438132e-13)
(0 1.54908915279e-13 -1.16011273184e-13)
(-2.47891053377e-28 1.55086051627e-13 -1.28159841655e-13)
(0 1.53140259843e-13 -1.39735200025e-13)
(0 1.50872084799e-13 -1.50596020463e-13)
(-2.85420618392e-28 1.43860814473e-13 -1.60632051898e-13)
(0 1.32285457075e-13 -1.69658834435e-13)
(-3.13546292082e-28 1.13842806617e-13 -1.77185813948e-13)
(0 9.01546761043e-14 -1.83358078704e-13)
(-3.44443501773e-28 6.51353264099e-14 -1.87887949842e-13)
(0 4.40084275644e-14 -1.90922296094e-13)
(0 3.23145913715e-14 -1.9293253381e-13)
(0 2.94818215678e-14 -1.94540967969e-13)
(0 2.96810145053e-14 -1.96111194947e-13)
(0 1.46860326572e-14 -1.97586035659e-13)
(0 -1.56508357125e-15 6.6028062143e-14)
(-1.91441077505e-28 -5.43395912962e-15 6.78986405799e-14)
(0 -1.09735755006e-14 6.20332715063e-14)
(0 -1.88153688441e-14 5.85102655762e-14)
(0 -2.50999398343e-14 5.76558232044e-14)
(0 -3.04989049588e-14 5.95132848914e-14)
(0 -3.52162687082e-14 5.6938400708e-14)
(0 -4.12762796472e-14 5.65542627863e-14)
(0 -4.68429086586e-14 5.56536294704e-14)
(0 -4.76944693292e-14 5.50101129569e-14)
(0 -4.79889914785e-14 5.60996016957e-14)
(0 -4.61500828613e-14 6.02779039277e-14)
(0 -4.36070231669e-14 6.01266405779e-14)
(-8.41149319343e-29 -3.93400097184e-14 5.4843961508e-14)
(-8.81619649422e-29 -2.772978085e-14 5.20760977567e-14)
(9.24037133911e-29 -2.29575678285e-14 5.21998839352e-14)
(0 -1.72462160452e-14 4.87650062612e-14)
(0 -8.26227934413e-15 4.70856874474e-14)
(0 -7.44137571617e-16 4.40918922254e-14)
(-1.11512121282e-28 1.35266743822e-14 4.28500944125e-14)
(0 2.01688987533e-14 3.99521358411e-14)
(-1.22500653067e-28 2.78705493211e-14 3.5729574186e-14)
(0 3.85215092648e-14 3.07806087942e-14)
(0 4.0939461021e-14 2.5252965543e-14)
(-7.05233441713e-29 5.12939278048e-14 1.9514429816e-14)
(0 6.12923881509e-14 1.09385866835e-14)
(0 6.52248136994e-14 2.17276701169e-15)
(0 7.14310918927e-14 -8.60351149102e-15)
(0 7.80135131987e-14 -1.81269269551e-14)
(0 8.20539370121e-14 -2.96547990162e-14)
(0 8.65557671391e-14 -4.09312963522e-14)
(0 9.17228784798e-14 -5.38701917811e-14)
(0 9.50383913408e-14 -6.65912492892e-14)
(0 1.00254842755e-13 -7.98780082108e-14)
(0 1.03150760912e-13 -9.25004277893e-14)
(0 1.05420174463e-13 -1.06344653058e-13)
(0 1.07969453191e-13 -1.18579675072e-13)
(0 1.08745252285e-13 -1.31773717124e-13)
(1.3615926043e-28 1.08628829139e-13 -1.43508635298e-13)
(0 1.06754428539e-13 -1.55020916892e-13)
(0 1.0110495429e-13 -1.65685288869e-13)
(0 9.25378112875e-14 -1.75316586995e-13)
(0 7.95136942247e-14 -1.83607081376e-13)
(0 6.28809567144e-14 -1.90003843175e-13)
(1.80507879095e-28 4.48491037209e-14 -1.94821398843e-13)
(0 2.98909495899e-14 -1.97947775672e-13)
(0 2.13712121567e-14 -2.00107255167e-13)
(0 1.93120834429e-14 -2.01822168917e-13)
(0 1.94189449028e-14 -2.03541931753e-13)
(0 9.60529067784e-15 -2.05149880867e-13)
(0 -5.10122257182e-16 6.64315228867e-14)
(0 -6.41156728139e-15 7.64140828549e-14)
(0 -1.51058370028e-14 6.61500304751e-14)
(0 -2.07445079015e-14 5.88978790984e-14)
(0 -2.37536432513e-14 5.90026242128e-14)
(0 -3.10376826932e-14 6.66907474466e-14)
(0 -3.80634171551e-14 5.77045454154e-14)
(0 -4.19305576737e-14 5.756107921e-14)
(0 -4.67028432077e-14 5.70997936177e-14)
(0 -4.76560528032e-14 5.49138260425e-14)
(0 -4.6335440489e-14 5.51276532559e-14)
(0 -4.4321041452e-14 5.74646273408e-14)
(0 -4.2929429408e-14 5.9283910585e-14)
(0 -3.93092627754e-14 5.61370284747e-14)
(0 -2.95957434631e-14 5.43153936295e-14)
(4.84247728235e-29 -2.55945449676e-14 5.02560654972e-14)
(0 -2.16469661048e-14 5.10327156597e-14)
(0 -1.32087308575e-14 4.8214284866e-14)
(0 -3.55802151988e-15 4.679412264e-14)
(0 6.8081823183e-15 4.30808173433e-14)
(0 1.34415378113e-14 3.87173092684e-14)
(0 1.75514107529e-14 3.75518341973e-14)
(-6.72860036519e-29 2.7299391247e-14 3.22844422093e-14)
(0 3.60317343492e-14 2.6217118704e-14)
(0 3.6523824327e-14 2.05886845098e-14)
(0 4.15579647087e-14 1.17466241087e-14)
(2.03000635066e-29 4.51254088598e-14 2.88527883893e-15)
(0 4.74775716693e-14 -5.98000347641e-15)
(0 5.09513861974e-14 -1.59520105222e-14)
(0 5.29498497696e-14 -2.85321403807e-14)
(0 5.49991207218e-14 -3.92223968741e-14)
(0 5.65169081329e-14 -5.22853365675e-14)
(0 5.81132974885e-14 -6.47081562254e-14)
(0 6.05162920937e-14 -7.79727238227e-14)
(0 6.03117943462e-14 -9.17081381579e-14)
(6.19727633455e-29 6.30973100254e-14 -1.05244753003e-13)
(-1.29908934425e-28 6.4313687837e-14 -1.18565914053e-13)
(0 6.2291441298e-14 -1.31784251783e-13)
(0 6.23761837999e-14 -1.44241708097e-13)
(0 6.01993946392e-14 -1.56515701918e-13)
(0 5.68915312408e-14 -1.67511632348e-13)
(0 5.18297311664e-14 -1.77710668769e-13)
(0 4.48128372579e-14 -1.86199598043e-13)
(0 3.49358327547e-14 -1.9305350203e-13)
(1.89192678893e-28 2.42041281867e-14 -1.98056314635e-13)
(0 1.54442685404e-14 -2.01447391925e-13)
(0 1.03314979783e-14 -2.03725497601e-13)
(-2.17835580051e-28 9.00133734729e-15 -2.0554988865e-13)
(0 8.90335190564e-15 -2.07390095776e-13)
(0 4.40223418587e-15 -2.09116506833e-13)
(0 4.72299486818e-15 6.28830933182e-14)
(-4.20611799801e-28 -5.96345864635e-15 6.87518805095e-14)
(0 -2.28672201861e-14 6.21497469036e-14)
(0 -2.38082228621e-14 5.73312787996e-14)
(0 -1.91635115114e-14 5.59949817957e-14)
(-2.53795612283e-28 -3.18289237885e-14 5.79576910431e-14)
(0 -4.25703780917e-14 5.27663261484e-14)
(0 -4.18258279861e-14 5.14079661303e-14)
(0 -4.92269931052e-14 5.08942522549e-14)
(0 -4.94785765607e-14 5.25651706788e-14)
(0 -4.53721003461e-14 5.19444352563e-14)
(0 -4.18223328387e-14 5.50331906085e-14)
(2.20404912352e-29 -4.51260833523e-14 4.99554259931e-14)
(0 -4.48929997417e-14 4.73137431533e-14)
(2.42123864113e-29 -3.4811626271e-14 4.29927532669e-14)
(0 -2.69950343144e-14 4.32574320095e-14)
(0 -2.02023061069e-14 4.35021238165e-14)
(0 -1.41990785952e-14 4.43270536865e-14)
(0 -8.25448310353e-15 4.5080370393e-14)
(0 1.14986156369e-15 4.22617274336e-14)
(0 1.13349498735e-14 4.04477737939e-14)
(0 1.66997223491e-14 3.76353177005e-14)
(0 1.85104413812e-14 3.55403929507e-14)
(0 1.96828190376e-14 2.85309257979e-14)
(0 2.31765977022e-14 2.25267572113e-14)
(0 2.53834163552e-14 1.473634999e-14)
(-2.12767631856e-29 2.75676051433e-14 6.59257632208e-15)
(0 2.93609519722e-14 -1.46338603823e-15)
(0 2.52924062226e-14 -1.06396587481e-14)
(0 2.53006574598e-14 -2.26404236797e-14)
(0 2.55657802098e-14 -3.41634713363e-14)
(0 2.33448989623e-14 -4.78213822033e-14)
(0 2.27198204731e-14 -6.13344469052e-14)
(-1.47819832901e-29 2.06547913536e-14 -7.4983700466e-14)
(0 1.88927962732e-14 -8.92517308767e-14)
(0 1.85381841299e-14 -1.02641397176e-13)
(0 1.79860113853e-14 -1.16908486446e-13)
(0 1.74553627998e-14 -1.30215174269e-13)
(0 1.64484631513e-14 -1.43217050652e-13)
(0 1.59044398527e-14 -1.55276359476e-13)
(0 1.43507305599e-14 -1.66679718486e-13)
(4.30554377211e-29 1.24710120125e-14 -1.76725093657e-13)
(0 1.06550159252e-14 -1.85641270925e-13)
(0 7.17873063084e-15 -1.92762410854e-13)
(0 3.5560811272e-15 -1.97892230836e-13)
(0 6.70658957498e-16 -2.01414373324e-13)
(0 -8.38978207105e-16 -2.03760255228e-13)
(0 -1.53578533234e-15 -2.05690379535e-13)
(0 -1.82996563419e-15 -2.0764880451e-13)
(0 -9.29218389839e-16 -2.09494156334e-13)
(-2.10305899904e-28 3.23002510509e-15 5.38525343362e-14)
(-2.20424375879e-28 -7.01777134666e-15 4.51421305606e-14)
(0 -2.27455335481e-14 5.10672467795e-14)
(0 -2.49594291269e-14 5.21025759308e-14)
(0 -2.30479685089e-14 5.10769785412e-14)
(0 -3.35773793825e-14 3.92976220217e-14)
(0 -4.32601412193e-14 4.53594628102e-14)
(0 -4.34253606974e-14 4.26702724425e-14)
(0 -4.57931867408e-14 4.29599065601e-14)
(0 -4.68535575564e-14 5.18130179753e-14)
(0 -4.39093056337e-14 4.54877733505e-14)
(-4.40809824704e-29 -4.63371365297e-14 4.20536290689e-14)
(0 -5.08768128569e-14 3.8515728867e-14)
(0 -4.70811492059e-14 4.03059253647e-14)
(-3.17216502591e-30 -3.42772113566e-14 4.02521349279e-14)
(0 -2.50587916055e-14 3.95983576601e-14)
(-2.78780303208e-29 -2.02419405542e-14 4.00540786033e-14)
(0 -1.12120949295e-14 4.01510246184e-14)
(3.06251632661e-29 -6.69142152451e-15 4.11362443846e-14)
(0 -9.80051432866e-18 4.15549635328e-14)
(0 6.41010376133e-15 4.00591560704e-14)
(0 9.8677472617e-15 3.64467528674e-14)
(0 1.17906496707e-14 3.33084844266e-14)
(0 1.29751497041e-14 2.92142782039e-14)
(2.03000635058e-29 1.10082609716e-14 2.55640878949e-14)
(0 1.07418392547e-14 1.91106687923e-14)
(-1.11502274737e-29 1.22942988837e-14 1.20629566178e-14)
(0 1.08815510854e-14 2.81964482811e-15)
(1.22489836227e-29 3.63344096153e-15 -7.38997008458e-15)
(0 -1.84517721314e-15 -1.73676909631e-14)
(1.34560124562e-29 -6.55349200135e-15 -2.99587187509e-14)
(0 -1.29465173323e-14 -4.27804541138e-14)
(0 -1.47155550372e-14 -5.66635359147e-14)
(0 -1.80487275352e-14 -7.07709881162e-14)
(0 -2.11679651845e-14 -8.42449690211e-14)
(0 -2.24770016205e-14 -9.82732003744e-14)
(3.56775772951e-29 -2.49616062767e-14 -1.12119288768e-13)
(0 -2.69648244048e-14 -1.25705924756e-13)
(0 -2.67390506947e-14 -1.38844438785e-13)
(4.10789983601e-29 -2.72297279373e-14 -1.51250518845e-13)
(0 -2.68150508266e-14 -1.62931848684e-13)
(4.51269697728e-29 -2.57346781241e-14 -1.73232575585e-13)
(0 -2.38296142869e-14 -1.82122215301e-13)
(0 -1.99779580188e-14 -1.89257692614e-13)
(0 -1.64262915147e-14 -1.94401524087e-13)
(-5.44588950126e-29 -1.3433014064e-14 -1.97826264472e-13)
(0 -1.17709833348e-14 -2.00235545185e-13)
(0 -1.21110477871e-14 -2.02227568985e-13)
(-6.27037211738e-29 -1.27208141396e-14 -2.04274721318e-13)
(0 -6.34230826014e-15 -2.06230766232e-13)
(0 -3.01642251813e-16 4.7695096455e-14)
(0 -7.43444329918e-15 3.76916408361e-14)
(0 -1.86809802333e-14 4.29651794043e-14)
(0 -2.3885828713e-14 4.32012103461e-14)
(0 -2.81020053463e-14 4.37472571142e-14)
(0 -3.56348473912e-14 3.18068980819e-14)
(0 -4.02679099537e-14 3.51408374096e-14)
(0 -4.369875637e-14 3.48241412091e-14)
(0 -4.15043130833e-14 3.79727467316e-14)
(0 -4.75155564206e-14 4.01339412157e-14)
(0 -5.39245936326e-14 3.70254266105e-14)
(0 -4.85311726125e-14 2.97195971011e-14)
(0 -4.69753659315e-14 3.61852180779e-14)
(0 -4.32596276662e-14 3.56765178315e-14)
(0 -3.55616738986e-14 3.82460049712e-14)
(3.48475379006e-30 -2.70996382442e-14 3.70154224425e-14)
(0 -1.95624167724e-14 3.52003275478e-14)
(0 -1.26988084343e-14 3.41615518158e-14)
(0 -6.38147041153e-15 3.41221879365e-14)
(0 -4.26689167247e-16 3.46544121034e-14)
(0 3.76954152439e-15 3.43386963915e-14)