/*--------------------------------*- C++ -*----------------------------------*\
| =========                 |                                                 |
| \\      /  F ield         | OpenFOAM: The Open Source CFD Toolbox           |
|  \\    /   O peration     | Version:  3.0.1                                 |
|   \\  /    A nd           | Web:      www.OpenFOAM.org                      |
|    \\/     M anipulation  |                                                 |
\*---------------------------------------------------------------------------*/
FoamFile
{
    version     2.0;
    format      ascii;
    class       volScalarField;
    location    "50000";
    object      k;
}
// * * * * * * * * * * * * * * * * * * * * * * * * * * * * * * * * * * * * * //

dimensions      [0 2 -2 0 0 0 0];

internalField   nonuniform List<scalar> 
2500
(
0.000961740921413
0.000981327544303
0.00101690845666
0.00106479962486
0.00112165197152
0.00118467257323
0.00125167836817
0.00132104995494
0.00139164134795
0.00146267974005
0.00153367201309
0.00160432441654
0.00167447667227
0.0017440495644
0.00181300433161
0.00188131206542
0.00194893142264
0.00201579311138
0.00208178974611
0.00214676977743
0.002210534292
0.0022728355568
0.00233337625164
0.00239180839253
0.00244773098507
0.00250068544601
0.00255014777001
0.00259551626861
0.0026360934325
0.00267106001402
0.00269943872517
0.00272004389964
0.0027314119508
0.00273170533216
0.00271857990031
0.0026890023446
0.00263900204974
0.0025633451173
0.00245514159338
0.00230548068515
0.00210343970157
0.0018374759688
0.00150063680211
0.00110348666956
0.000693074383791
0.000350381107585
0.000134316671914
3.54366322661e-05
6.2080051333e-06
1.09467752332e-05
0.000981326339369
0.00100089761516
0.00103645051169
0.00108429915511
0.00114108483561
0.00120399747373
0.00127083201653
0.00133994567255
0.00141017080728
0.00148071714287
0.00155107992955
0.00162096055446
0.00169020092217
0.00175873075051
0.00182652619634
0.00189357812554
0.00195986845978
0.00202535318901
0.00208995076963
0.00215353472222
0.00221592930836
0.00227690721383
0.00233618820502
0.00239343775529
0.00244826465271
0.00250021658406
0.00254877262151
0.00259333138754
0.00263319340179
0.00266753566756
0.00269537586395
0.00271552247407
0.00272650567519
0.00272648170526
0.00271310063158
0.00268332424127
0.00263317852674
0.00255742870251
0.00244918821568
0.00229955733858
0.0020976385002
0.00183193926653
0.00149559553953
0.0010992881515
0.000690096785619
0.000348734755455
0.000133656999145
3.52608220147e-05
6.17943820054e-06
1.09090031792e-05
0.00101690528925
0.00103644854298
0.00107195163083
0.00111972750945
0.00117640243354
0.00123913735591
0.0013056887501
0.00137437181394
0.00144397897857
0.00151368658776
0.00158296624232
0.00165150732919
0.00171915218269
0.00178584315141
0.00185158013318
0.00191638706592
0.00198028600633
0.00204327760116
0.00210532688745
0.00216635343454
0.002226224871
0.00228475284115
0.0023416904224
0.00239673001364
0.00244950067562
0.00249956385489
0.00254640633427
0.00258942909457
0.00262793050334
0.00266108181166
0.00268789226473
0.00270716011636
0.00271740435567
0.00271676986922
0.00270289600891
0.00267273538494
0.00262230755691
0.00254637595291
0.00243806025835
0.00228848137512
0.00208678876711
0.00182158417373
0.00148616938704
0.0010914422379
0.000684537226302
0.000345663417562
0.000132426966105
3.49330509474e-05
6.12615512954e-06
1.08383978056e-05
0.00106479423391
0.0010842949437
0.0011197252471
0.00116740218261
0.00122393790421
0.00128645979687
0.0013526763424
0.001420847836
0.00148971229012
0.00155839825176
0.00162634071932
0.00169320669745
0.00175883194953
0.00182316835472
0.00188624058341
0.00194811075984
0.00200884995988
0.00206851559614
0.00212713389069
0.00218468670881
0.00224110203157
0.00229624730143
0.00234992480257
0.00240186815197
0.00245173888541
0.00249912202077
0.00254351935334
0.00258433905743
0.00262087989239
0.0026523078832
0.00267762268751
0.00269560987003
0.00270477385417
0.00270324427428
0.00268864575072
0.00265791804032
0.0026070715122
0.002530866833
0.00242243220448
0.00227291739044
0.00207153808869
0.00180702887322
0.00147292515751
0.00108042833718
0.0006767434544
0.000341363567533
0.00013070627726
3.44746354766e-05
6.05158058671e-06
1.07392433979e-05
0.00112164448834
0.0011410784962
0.00117639799591
0.00122393569648
0.00128029838799
0.00134258361068
0.00140845015227
0.00147609695868
0.00154419761412
0.00161182061368
0.00167835113276
0.00174342078504
0.00180684701499
0.00186858164601
0.00192866742307
0.00198720136734
0.00204430397564
0.00210009354289
0.00215466506893
0.00220807330392
0.00226031948934
0.00231134128303
0.00236100523638
0.00240910104385
0.00245533662183
0.00249933290302
0.00254061704503
0.00257861252688
0.00261262430508
0.00264181676499
0.00266518155393
0.00268149141413
0.00268923471731
0.00268652340382
0.00267096439565
0.00263948158862
0.00258807371252
0.00251149763648
0.00240289184926
0.00225344204206
0.00205244703226
0.0017888084382
0.00145635482306
0.00106666508451
0.000667021677859
0.00033600949728
0.000128565921616
3.39045814341e-05
5.95875535502e-06
1.06152644706e-05
0.00118466336665
0.00120398935821
0.0012391310657
0.00128645566782
0.0013425816502
0.00140458902423
0.00147009322048
0.00153723220405
0.00160461024003
0.00167122664759
0.0017364045619
0.00179972606226
0.00186097536435
0.00192008968752
0.00197711672804
0.00203217765644
0.00208543479959
0.00213706345321
0.00218722749998
0.00223605864225
0.00228363908866
0.00232998747125
0.00237504763111
0.00241867971922
0.00246065283363
0.00250063816951
0.00253820139579
0.00257279268012
0.00260373243029
0.00263019035311
0.00265115477232
0.00266538819039
0.00267136369314
0.00266717484934
0.00265040920329
0.00261797262316
0.00256585017796
0.00248879393073
0.00237995401762
0.00223055812343
0.002030003097
0.00176738801983
0.00143688703322
0.00105051907696
0.000655641817242
0.00032975567944
0.000126068986809
3.32397904463e-05
5.85037397465e-06
1.04697016946e-05
0.00125166790761
0.00127082257953
0.00130568103584
0.00135267068687
0.00140844658839
0.00147009157779
0.00153519172293
0.00160183115189
0.00166854544344
0.00173425963459
0.00179822495148
0.00185996038678
0.001919200837
0.00197585148283
0.00202994741015
0.00208161744852
0.0021310514545
0.00217847058108
0.00222410034749
0.00226814650911
0.00231077380736
0.00235208765399
0.00239211868416
0.00243080991164
0.0024680059595
0.00250344353414
0.00253674197307
0.0025673923231
0.00259474297739
0.00261797937231
0.00263609454869
0.00264784641328
0.00265169616696
0.00264572046582
0.00262748741335
0.00259388379363
0.00254087962912
0.00246322135713
0.00235407185519
0.00220470604682
0.00200463204671
0.00174317356701
0.00141489654845
0.001032312161
0.000642842045221
0.000322738914622
0.000123271431093
3.24952586125e-05
5.72881967137e-06
1.03053749682e-05
0.00132103871623
0.00133993537848
0.00137436311927
0.00142084107016
0.00147609217576
0.00153722926894
0.00160182982455
0.00166793762875
0.00173402582065
0.00179894468267
0.00186186712799
0.0019222376587
0.00197972648463
0.00203418854775
0.00208562650612
0.00213415668563
0.00217997724639
0.00222333813327
0.00226451268424
0.00230377100283
0.00234135533957
0.00237745776097
0.00241220031386
0.00244561772309
0.00247764240359
0.00250809123633
0.00253665316401
0.00256287621283
0.00258615203054
0.00260569542076
0.00262051558752
0.00262937479288
0.00263072875044
0.00262264120731
0.00260266277962
0.0025676615773
0.00251359212173
0.00243519482956
0.00232564634354
0.00217627344789
0.00197670735095
0.00171652076019
0.00139071215533
0.00101232765035
0.000628832784281
0.000315080306973
0.000120222818652
3.168426801e-05
5.59619710181e-06
1.01247371273e-05
0.00139162975993
0.00141016007726
0.00144396971015
0.00148970480051
0.00154419197456
0.00160460634822
0.00166854309649
0.00173402477257
0.00179947372588
0.00186366994648
0.00192570587747
0.00198494349203
0.00204097525722
0.00209358878479
0.00214273427976
0.00218849381711
0.00223105168417
0.00227066533693
0.00230763683356
0.00234228487449
0.00237491776914
0.00240580774728
0.00243516703108
0.00246312597601
0.00248971337614
0.00251483871481
0.00253827573205
0.00255964618001
0.00257840204547
0.00259380381483
0.00260489149935
0.00261044404994
0.00260892136601
0.00259838123146
0.00257636118656
0.00253971297133
0.00248437646023
0.00240508639178
0.00229503438284
0.00214560330606
0.00194655814594
0.00168774254991
0.00136462338528
0.000990815680146
0.000613800241896
0.000306887074407
0.000116967011674
3.08185685642e-05
5.45436284252e-06
9.9299202545e-06
0.00146266816063
0.00148070633079
0.00151367709115
0.00155839037133
0.00161181443407
0.00167122209664
0.00173425654495
0.00179894284197
0.0018636691321
0.00192715451897
0.00198841351353
0.00204672173689
0.00210158437683
0.002152707245
0.00219996960889
0.00224339785442
0.00228313919689
0.00231943493753
0.0023525930682
0.00238296030685
0.0024108938732
0.00243673346782
0.00246077398636
0.00248323947055
0.00250425865912
0.00252384224622
0.0025418615768
0.0025580280041
0.00257187149914
0.00258271632232
0.00258965061208
0.00259148555748
0.00258669831502
0.00257335091977
0.00254897514569
0.00251041103588
0.00245358643044
0.00237323185975
0.00226255563043
0.00211300080852
0.00191447595965
0.00165711553404
0.00133688622893
0.0009679978156
0.000597909520554
0.00029825418704
0.000113542809839
2.99085472452e-05
5.30495336169e-06
9.72277571575e-06
0.00153366072352
0.00155106931597
0.00158295679546
0.00162633272025
0.00167834467613
0.00173639960285
0.00179822135624
0.00186186471668
0.0019257044551
0.00198841288974
0.00204893398231
0.00210645790683
0.0021603974001
0.00221036576991
0.00225615580517
0.00229771867985
0.00233514205135
0.00236862678753
0.0023984620338
0.00242499860631
0.00244862093986
0.00246971801217
0.00248865379313
0.00250573781369
0.00252119639672
0.00253514492383
0.00254756120832
0.00255825958817
0.00256686472744
0.00257278330076
0.00257517070658
0.00257288866627
0.00256444795586
0.00254792852944
0.00252086698515
0.00248009919561
0.00242154584112
0.00233993630518
0.00222849820092
0.00207873909555
0.00188072035312
0.0016248853219
0.00130772796831
0.000944070989644
0.00058130732351
0.000289265826156
0.000109984529191
2.89633820497e-05
5.14941022576e-06
9.50490864631e-06
0.00160431362535
0.0016209503502
0.00165149814524
0.00169319879318
0.00174341426197
0.0017997208998
0.0018599564824
0.00192223486353
0.00198494163789
0.00204672065465
0.00210645743739
0.0021632625614
0.0022164560282
0.002265552513
0.00231024679972
0.00235039854421
0.00238601556022
0.00241723500051
0.00244430204055
0.00246754592289
0.002487353461
0.00250414031238
0.00251832049815
0.00253027475308
0.00254031831902
0.00254866872093
0.00255541386213
0.00256048041068
0.00256360189074
0.00256428510587
0.00256177247028
0.002554996467
0.00254252074233
0.00252246025898
0.00249237056934
0.00244909420042
0.00238855233779
0.0023054783973
0.00219312328546
0.00204306397242
0.00184552357802
0.00159127098556
0.0012773512116
0.000919210822882
0.000564124273089
0.00027999665973
0.000106322515299
2.79911791134e-05
4.98900238934e-06
9.27770742882e-06
0.00167446652386
0.00169019127628
0.00171914341721
0.00175882430098
0.00180684058888
0.00186097016105
0.00191919678251
0.00197972345919
0.00204097311841
0.00210158297618
0.00216039659398
0.00221645568419
0.00226899234953
0.00231742158746
0.0023613334351
0.00240048395351
0.00243478425529
0.00246428689692
0.00248916913904
0.00250971279141
0.00252628058
0.00253928918501
0.0025491792852
0.00255638309157
0.00256128994441
0.00256421056009
0.00256534041561
0.00256472251099
0.00256220930383
0.00255742291453
0.00254971169845
0.00253809991908
0.00252122548975
0.00249725857541
0.00246379141167
0.00241768764605
0.00235487993535
0.0022701135931
0.00215666871694
0.00200619764045
0.00180909431758
0.00155646866938
0.00124593719388
0.000893574369368
0.000546476859269
0.000270512935454
0.000102583588675
2.69990922141e-05
4.8248455318e-06
9.04236864729e-06
0.00174404014903
0.00175872175981
0.001785834911
0.00182316107791
0.00186857543963
0.00192008456952
0.00197584740459
0.00203418541636
0.00209358648212
0.00215270564253
0.00221036473916
0.00226555193238
0.00231742134619
0.00236529256945
0.00240864942719
0.00244713728214
0.00248055809527
0.0025088625331
0.0025321385318
0.00255059589275
0.00256454667114
0.00257438131446
0.00258054069458
0.00258348434438
0.0025836553408
0.00258144235177
0.00257713935638
0.00257090341614
0.00256271056408
0.0025523093219
0.00253917047342
0.00252243043932
0.00250082385194
0.00247259871887
0.00243540507359
0.00238614595812
0.00232078020285
0.00223407614573
0.00211935148361
0.00196834147497
0.0017716205554
0.00152065441
0.00121364839389
0.000867302326392
0.000528469038434
0.000260873396794
9.87914230627e-05
2.59934246926e-05
4.65791850625e-06
8.79991799001e-06
0.00181299569548
0.00182651791489
0.00185157248399
0.00188623375696
0.00192866152517
0.00197711179067
0.00202994340672
0.0020856233679
0.00214273191119
0.00219996790037
0.00225615464294
0.00231024607286
0.00236133304014
0.00240864927072
0.00245157641303
0.00248964748503
0.00252254798812
0.00255011396266
0.00257232632175
0.00258930090731
0.0026012738539
0.00260858200982
0.00261163833658
0.0026109023754
0.00260684601763
0.00259991492995
0.00259048604095
0.00257882145987
0.00256501901781
0.00254895922375
0.00253024771973
0.00250815119704
0.00248152311002
0.00244871337691
0.00240745378027
0.0023547087522
0.00228648202514
0.00219757988251
0.00208136917249
0.00192967785741
0.0017332715978
0.00148398620319
0.00118063050685
0.000840520743142
0.000510193504339
0.000251130031119
9.49668592392e-05
2.49797144105e-05
4.48907704798e-06
8.55122758692e-06
0.00188130422007
0.00189357057345
0.00191638004158
0.00194810443185
0.0019871958385
0.00203217296935
0.00208161359506
0.00213415361834
0.00218849146093
0.00224339611747
0.00229771746247
0.00235039774594
0.00240048347812
0.00244713704096
0.00248964739886
0.00252743925795
0.00256007998319
0.00258728355624
0.0026089108638
0.00262496565209
0.00263558557028
0.00264102784469
0.00264164926746
0.00263788033428
0.00263019351229
0.00261906574722
0.00260493540997
0.0025881539108
0.00256893213246
0.0025472815841
0.00252294966193
0.00249534750093
0.00246346749572
0.00242578560753
0.00238014123305
0.00232358549972
0.00225218986164
0.0021608176885
0.00204290030434
0.00189037104908
0.00169419925834
0.0014466053413
0.0011470138049
0.000813342259843
0.000491732654211
0.000241328661193
9.11281582651e-05
2.39628027463e-05
4.31906494399e-06
8.29703028606e-06
0.00194892435332
0.00195986163108
0.00198027961498
0.00200884415402
0.00204429885345
0.00208543041112
0.00213104780653
0.00217997430964
0.00223104940184
0.00228313749338
0.00233514084033
0.00238601475137
0.0024347837596
0.00248055782883
0.0025225478746
0.00256007995526
0.0025926074816
0.00261972075396
0.00264115309853
0.00265678286324
0.00266663055887
0.00267085049549
0.00266971636115
0.00266360030871
0.00265294524433
0.00263823013251
0.00261992823283
0.00259845824243
0.00257412830568
0.00254707271647
0.00251718079792
0.00248401678177
0.0024467283927
0.00240394018923
0.00235362566317
0.00229295046059
0.00221808042777
0.0021239596215
0.00200410350551
0.0018505670772
0.00165453819834
0.0014086370334
0.00111291391032
0.000785866907011
0.000473159274048
0.000231509393055
8.72911991216e-05
2.29468889217e-05
4.14852290744e-06
8.03793139965e-06
0.0020157867844
0.00202534705856
0.00204327183157
0.00206851031685
0.00210008884635
0.00213705939406
0.00217846717762
0.00222333537127
0.00227066317546
0.00231943331567
0.00236862563136
0.00241723422947
0.00246428642908
0.00250886228937
0.00255011386968
0.00258728354828
0.00261972077397
0.00264689659503
0.00266841524853
0.00268402203262
0.00269360664994
0.00269720121113
0.00269497212719
0.00268720519062
0.002674283237
0.0026566558758
0.00263480086639
0.00260917677542
0.00258016656392
0.00254801168234
0.00251273603973
0.00247405876509
0.00243129387266
0.00238323368309
0.00232801125152
0.0022629358894
0.00218429774127
0.00208714958105
0.00196511544906
0.00181039258831
0.00161440540389
0.00137019031121
0.00107843200132
0.00075818249306
0.000454536967807
0.000221706934407
8.34696262701e-05
2.19355711235e-05
3.97799542959e-06
7.77441848261e-06
0.00208178411509
0.00208994529899
0.00210532171431
0.00212712912781
0.0021546608023
0.00218722378642
0.00222409721368
0.00226451012806
0.00230763482747
0.00235259156428
0.00239846096954
0.0024443013446
0.00248916873644
0.0025321383483
0.00257232628705
0.00260891091388
0.00264115317704
0.00266841530748
0.00269017719375
0.00270604966129
0.00271578379388
0.00271927537198
0.00271656347545
0.00270782230715
0.00269334533269
0.00267352088608
0.00264879844569
0.00261964482224
0.00258648950339
0.00254965834654
0.00250929466788
0.00246526648238
0.00241705811934
0.00236364360072
0.00230333813324
0.00223362358627
0.00215094650719
0.00205050046139
0.00192604749062
0.0017699526127
0.00157389876878
0.00133135721629
0.00104365446735
0.000730364608548
0.000435920356367
0.000211950798635
7.96749531628e-05
2.09318760327e-05
3.80793590645e-06
7.50686974843e-06
0.0021467647885
0.00215352986466
0.00216634882302
0.00218468244147
0.00220806946
0.00223605527883
0.00226814365858
0.00230376867234
0.00234228304756
0.00238295894681
0.00242499766093
0.00246754532948
0.00250971248175
0.00255059579744
0.00258930095927
0.00262496578911
0.00265678302978
0.00268402218077
0.00270604975122
0.00272234719226
0.00273252564689
0.00273633653582
0.00273367690116
0.00272458836549
0.00270924853347
0.00268795365562
0.00266109137649
0.0026291023819
0.002592429726
0.00255145454156
0.00250641670194
0.00245731878565
0.00240381136376
0.00234505717285
0.00227957130798
0.00220503494278
0.00211808386339
0.00201408773749
0.00188698092574
0.00172932717637
0.00153309474567
0.00129221125976
0.00100865203042
0.00070247627714
0.000417355073984
0.000202265410662
7.59166281942e-05
1.99382784938e-05
3.63871036184e-06
7.2355617827e-06
0.00221052988802
0.00221592501286
0.00222622078048
0.0022410982316
0.00226031605246
0.00228363607073
0.00231077124421
0.0023413532452
0.0023749161359
0.00241089267395
0.00244862013151
0.00248735298887
0.00252628038238
0.00256454668346
0.00260127401239
0.00263558581472
0.00266663083467
0.00269360690935
0.00271578399671
0.00273252576072
0.00274330889906
0.00274773923807
0.00274556346042
0.00273667519133
0.00272111405575
0.00269905623245
0.00267079495882
0.00263670936676
0.00259721993383
0.0025527286999
0.00250354222068
0.0024497750106
0.00239123099299
0.0023272602978
0.00225658887913
0.00217711972636
0.00208570957356
0.00197794146779
0.00184796080608
0.00168856669629
0.00149204502388
0.00125280514509
0.000973478351678
0.000674567287521
0.000398877592885
0.000192670132276
7.22020701178e-05
1.89567132032e-05
3.47060011795e-06
6.96067728683e-06
0.00227283168057
0.00227690342833
0.00228474922834
0.00229624393623
0.00231133823156
0.00232998478717
0.00235208537478
0.00237745590535
0.00240580631445
0.00243673243854
0.00246971735135
0.00250413997268
0.00253928911091
0.00257438144622
0.00260858228708
0.0026410282094
0.00267085089416
0.00269720159632
0.00271927570323
0.00273633678004
0.0027477393695
0.00275294963546
0.00275156273512
0.00274331559684
0.0027280935821
0.00270592932963
0.00267699191367
0.00264156428393
0.0026000067716
0.00255270422645
0.00249999408557
0.00244207238737
0.00237887450118
0.00230992730902
0.00223417013997
0.00214974394591
0.00205375483445
0.00194203674698
0.00180898827568
0.00164768610185
0.00145077219487
0.0012131677484
0.000938168149254
0.00064667324744
0.000380514911043
0.000183179226515
6.85366806697e-05
1.79885804869e-05
3.30380380245e-06
6.68231367752e-06
0.00233337284833
0.00233618487881
0.00234168724375
0.00234992183748
0.002361002545
0.00237504526427
0.00239211667962
0.00241219869337
0.00243516579895
0.00246077312976
0.00248865328385
0.00251832029551
0.00254917933954
0.00258054095091
0.00261163873809
0.00264164975845
0.00266971688943
0.0026949726458
0.00271656394378
0.00273367728551
0.00274556373417
0.00275156287857
0.00275112476281
0.00274382849924
0.0027293960091
0.00270769905878
0.00267875748418
0.00264272621773
0.00259986843558
0.00255051180688
0.00249498444354
0.0024335267376
0.00236617493184
0.0022926122346
0.00221198410381
0.00212267724212
0.00202206995783
0.00190628270982
0.00177001142635
0.00160665764415
0.00140926437666
0.00117330036115
0.000902734866283
0.000618814412223
0.000362284144803
0.000173801783677
6.49238431994e-05
1.70347485102e-05
3.13843913448e-06
6.4004934835e-06
0.00239180541129
0.00239343484075
0.00239672722717
0.00240186555215
0.00240909868539
0.00241867764982
0.00243080816837
0.00244561632934
0.00246312493977
0.00248323878408
0.00250573745462
0.00253027468669
0.0025563832737
0.00258348472474
0.00261090290081
0.0026378809516
0.00266360096729
0.00268720584417
0.00270782291506
0.00272458889357
0.00273667561213
0.00274331588965
0.00274382864979
0.00273764213375
0.00272431372593
0.0027035445502
0.00267518660974
0.00263923983633
0.00259583597812
0.00254520577283
0.00248762531342
0.00242333693364
0.00235243942479
0.00227474223143
0.00218957913562
0.00209558034111
0.00199041128967
0.00187051027203
0.0017309147297
0.00156540238936
0.00136746879205
0.0011331722223
0.000867167949716
0.000590994357757
0.000344192078247
0.000164541636087
6.13649177703e-05
1.60955547058e-05
2.97454500961e-06
6.11517762423e-06
0.00244772837999
0.00244826210637
0.00244949824219
0.00245173661729
0.00245533456883
0.00246065104022
0.00246800446139
0.00247764122484
0.0024897125272
0.00250425813619
0.00252119618234
0.00254031838373
0.00256129024921
0.00258365583997
0.00260684666171
0.00263019425091
0.00265294602864
0.00267428402163
0.00269334607723
0.00270924920337
0.00272111462285
0.0027280940247
0.00272939631181
0.00272431387929
0.00271224711492
0.00269272539849
0.00266542239973
0.00263016294044
0.00258691809532
0.00253578454834
0.00247694348867
0.0024105935371
0.00233685144072
0.00225561387153
0.00216637438537
0.00206799319738
0.00195842783962
0.00183445889926
0.00169150718474
0.00152378045073
0.00132528433979
0.00109271540673
0.000831429837775
0.000563198596072
0.000326234737295
0.00015539729605
5.78592458736e-05
1.51708099057e-05
2.81208452107e-06
5.82628281942e-06
0.00250068317656
0.00250021436717
0.00249956173894
0.00249912005298
0.00249933112887
0.00250063663023
0.00250344226371
0.00250809025871
0.002514838042
0.00252384187739
0.00253514484556
0.00254866890839
0.002564210979
0.00258144296086
0.00259991568357
0.00261906659797
0.0026382310336
0.00265665678307
0.00267352175958
0.00268795446065
0.00269905694023
0.00270592991756
0.00270769951039
0.00270354485486
0.00269272555099
0.00267460744647
0.00264868473966
0.00261459574771
0.00257212894683
0.00252121504516
0.00246189989176
0.00239429197312
0.00231847719928
0.0022343929489
0.00214165375598
0.00203932453226
0.00192564820929
0.00179776282212
0.00165150943493
0.00148158010708
0.00128255327561
0.00105181920704
0.000795452815842
0.000535393276933
0.000308397082137
0.000146361963158
5.44041822139e-05
1.42598097983e-05
2.65094972935e-06
5.53370455008e-06
0.00255014580104
0.00254877070018
0.00254640450423
0.00254351765742
0.0025406155248
0.00253820008941
0.00253674091253
0.00253665237268
0.00253827522274
0.00254186135085
0.00254756125559
0.00255541416181
0.00256534093775
0.00257714006395
0.00259048689212
0.00260493636051
0.0026199292383
0.00263480188417
0.00264879943656
0.00266109230584
0.00267079579746
0.00267699263822
0.00267875807714
0.00267518705934
0.00266542269955
0.00264868488817
0.0026242973296
0.00259171062628
0.00255051817264
0.00250046060356
0.00244141334989
0.00237335050798
0.00229627682707
0.00221011847094
0.00211456317195
0.00200884355459
0.00189146853489
0.00175993726882
0.00161054026489
0.00143850609988
0.0012390522502
0.00101032426525
0.000759136002376
0.000507524190676
0.000290652951743
0.000137423665456
5.09951778083e-05
1.33613601093e-05
2.49096924842e-06
5.23734713193e-06
0.00259551457008
0.00259332973262
0.0025894275229
0.00258433760804
0.00257861123786
0.0025727915867
0.00256739145521
0.00256287559285
0.00255964582105
0.00255802790903
0.00255825974944
0.00256048081091
0.00256472312415
0.0025709042092
0.00257882239482
0.00258815494668
0.00259845933744
0.00260917788878
0.00261964591582
0.0026291034215
0.00263671032299
0.00264156513279
0.00264272694083
0.0026392404208
0.00263016337868
0.00261459603699
0.00259171076821
0.00256078032014
0.00252120168441
0.00247251162165
0.00241438845891
0.00234663313163
0.00226912064586
0.00218171149704
0.00208411196141
0.00197567474482
0.00185514230612
0.00172036547872
0.00156810310208
0.00139416761826
0.00119448316092
0.00096801690465
0.00072234288871
0.000479516398701
0.000272965455023
0.000128565626603
4.76259488056e-05
1.24738245558e-05
2.33192007505e-06
4.9371624949e-06
0.00263609197902
0.00263319198846
0.00262792916633
0.00262087866739
0.00261262322702
0.00260373153166
0.00259474228602
0.00258615156762
0.00257840182399
0.00257187152296
0.00256686499104
0.0025636023796
0.0025622099954
0.00256271142908
0.00256502002192
0.00256893323811
0.0025741294739
0.0025801677561
0.00258649068284
0.00259243085926
0.00259722099164
0.00260000772959
0.00259986927458
0.00259583668429
0.00258691865993
0.00257212936596
0.0025505184467
0.00252120181767
0.00248339096174
0.00243641729841
0.00237974667255
0.00231297711985
0.00223581088207
0.00214798946635
0.00204917922743
0.00193879671045
0.00181577311105
0.00167828750812
0.00152357344465
0.00134806680365
0.00114846459965
0.000924624418109
0.000684900106079
0.000451274983002
0.000255288091167
0.000119766990459
4.42887797667e-05
1.15952083421e-05
2.17354555285e-06
4.63319905635e-06
0.00267105878423
0.00266753447487
0.00266108068911
0.00265230686347
0.00264181588015
0.00263018963306
0.00261797884282
0.0026056951017
0.00259380371877
0.00258271645368
0.00257278365555
0.00256428567195
0.00255742367237
0.00255231024563
0.00254896028256
0.00254728274381
0.00254707394111
0.00254801293574
0.00254965959379
0.00255145575031
0.00255272984136
0.00255270527616
0.00255051274518
0.00254520658502
0.00253578522467
0.00252121558056
0.00250046099727
0.00247251187678
0.00243641742136
0.00239131584307
0.00233645887944
0.00227122444277
0.00219510874663
0.00210768655872
0.00200852615347
0.00189704629939
0.00177231162038
0.00163279218282
0.0014761885547
0.00129958907809
0.00110052517252
0.000879812530706
0.00064659846
0.000422687638185
0.000237567000108
0.000111004085912
4.09750286221e-05
1.07232947091e-05
2.01558190205e-06
4.3256614305e-06
0.00269943770114
0.00269537487422
0.00268789133948
0.00267762185668
0.00266518084695
0.00265115421666
0.00263609416812
0.00262051540052
0.00260489151785
0.00258965084074
0.00257517114249
0.00256177310323
0.00254971251146
0.00253917144369
0.00253024881973
0.00252295086076
0.00251718206267
0.00251273733685
0.00250929596457
0.00250641796732
0.0025035434268
0.00249999520825
0.00249498546288
0.00248762621411
0.00247694426007
0.00246190052777
0.00244141384863
0.00241438882232
0.00237974690591
0.00233645899089
0.00228357638132
0.00222025513911
0.00214576616877
0.00205948034658
0.00196081521297
0.00184912940239
0.00172355851546
0.00158281405899
0.00142504136759
0.00124799729715
0.00105010069755
0.000833186929543
0.000607197784002
0.000393630132007
0.000219744888189
0.000102252474146
3.76759211941e-05
9.85585725451e-06
1.85779624325e-06
4.01498036805e-06
0.00272004306623
0.00271552167234
0.00270715937383
0.00269560921411
0.0026814908718
0.00266538778683
0.00264784617035
0.00262937472762
0.0026104441735
0.0025914858745
0.00257288917459
0.00255499715789
0.00253810077771
0.00252243144552
0.00250815232629
0.00249534872542
0.0024840180716
0.00247406008947
0.00246526781082
0.00245732008906
0.00244977626224
0.00244207356369
0.00243352781883
0.00242333790414
0.00241059438557
0.00239429269256
0.00237335109547
0.00234663358802
0.00231297744932
0.00227122465237
0.00222025523827
0.00215901910896
0.00208656026199
0.00200202434361
0.00190463713094
0.00179364017489
0.00166817565613
0.00152713804187
0.00136908150476
0.00119243277303
0.00099653835657
0.000784301700628
0.000566437831527
0.000363976012621
0.000201767320339
9.34900736973e-05
3.43837401523e-05
8.9909747729e-06
1.70003923774e-06
3.70188998263e-06
0.00273141129509
0.00272650504868
0.00271740378338
0.00270477336114
0.00268923432823
0.00267136343107
0.0026516960519
0.00263072879802
0.00260892158653
0.00258669871286
0.00256444852934
0.00254252148381
0.00252122638616
0.00250082488536
0.00248152425855
0.00246346873441
0.00244672969453
0.00243129520959
0.00241705946332
0.00240381268772
0.00239123227174
0.00237887571215
0.00236617605573
0.00235244044598
0.00233685234753
0.00231847798403
0.00229627748596
0.00226912117875
0.00223581129208
0.00219510903976
0.0021457663534
0.00208656034842
0.00201632663911
0.00193398480312
0.00183854600284
0.00172909071431
0.00160470866389
0.00146441557262
0.00130712776987
0.00113192781904
0.000939112436799
0.000732678788606
0.000524058211493
0.000333612269589
0.000183592160238
8.47016741966e-05
3.10935139684e-05
8.12747479091e-06
1.54231486721e-06
3.38750580621e-06
0.00273170484298
0.0027264812429
0.00271676945634
0.00270324393371
0.00268652315812
0.00266717471958
0.00264572047022
0.00262264136013
0.00259838154206
0.00257335139219
0.00254792916219
0.00252246104527
0.0024972595035
0.00247259977274
0.00244871453692
0.00242578685126
0.00240394149233
0.00238323502015
0.00236364494616
0.00234505850177
0.00232726158677
0.00230992853679
0.00229261338268
0.00227474328457
0.00225561481798
0.00223439378058
0.00221011918339
0.00218171208926
0.00214798994054
0.00210768691986
0.00205948060206
0.00200202450276
0.00193398487675
0.00185407806833
0.00176110201471
0.00165395345739
0.00153162537127
0.00139319831284
0.00123789893405
0.0010654369814
0.000877058558075
0.000677844216618
0.000479831143807
0.000302462795334
0.000165202859675
7.58850698383e-05
2.78052734235e-05
7.26552080132e-06
1.38486769305e-06
3.07339265124e-06
0.00271857956777
0.00271310032358
0.00270289574587
0.00268864555341
0.00267096428464
0.00265040919775
0.00262748752986
0.00260266303108
0.00257636158142
0.0025489756875
0.00252086767249