/*--------------------------------*- C++ -*----------------------------------*\
| =========                 |                                                 |
| \\      /  F ield         | OpenFOAM: The Open Source CFD Toolbox           |
|  \\    /   O peration     | Version:  3.0.1                                 |
|   \\  /    A nd           | Web:      www.OpenFOAM.org                      |
|    \\/     M anipulation  |                                                 |
\*---------------------------------------------------------------------------*/
FoamFile
{
    version     2.0;
    format      ascii;
    class       surfaceScalarField;
    location    "50000";
    object      phi;
}
// * * * * * * * * * * * * * * * * * * * * * * * * * * * * * * * * * * * * * //

dimensions      [0 3 -1 0 0 0 0];

internalField   nonuniform List<scalar> 
4900
(
4.63625665905e-16
-4.62553889002e-16
8.94772422998e-16
-4.31054677453e-16
1.28786261378e-15
-3.9320715427e-16
1.6394293842e-15
-3.51615902378e-16
1.94775256624e-15
-3.08339764698e-16
2.21258064128e-15
-2.65083539352e-16
2.43502449223e-15
-2.22718637453e-16
2.61713652575e-15
-1.82164472677e-16
2.76103994956e-15
-1.43941136346e-16
2.86943319662e-15
-1.0838841544e-16
2.94519037002e-15
-7.57382375307e-17
2.99112291832e-15
-4.59567490054e-17
3.01015691263e-15
-1.91420295593e-17
3.00528580182e-15
4.88831487729e-18
2.97907352648e-15
2.61621484755e-17
2.93417336523e-15
4.48521990514e-17
2.87302902442e-15
6.10968058545e-17
2.79801375616e-15
7.50649836494e-17
2.71113725122e-15
8.692628427e-17
2.61432155041e-15
9.68491017373e-17
2.50934778785e-15
1.05001572667e-16
2.3978418304e-15
1.11545519966e-16
2.28126664892e-15
1.16628898995e-16
2.16089352042e-15
1.2039975805e-16
2.03788413049e-15
1.22982469324e-16
1.91339601715e-15
1.24512999272e-16
1.788277749e-15
1.25093844319e-16
1.66342479648e-15
1.24831679031e-16
1.53958251368e-15
1.23820636499e-16
1.41746151279e-15
1.22148037004e-16
1.29760526546e-15
1.19880174752e-16
1.18054285955e-15
1.17082937917e-16
1.06675496712e-15
1.13813408641e-16
9.56611258068e-16
1.10119573299e-16
8.50567213675e-16
1.0604456566e-16
7.4895225487e-16
1.01616169162e-16
6.52099449346e-16
9.68545049237e-17
5.60330011242e-16
9.17664861563e-17
4.73993305214e-16
8.63470449573e-17
3.93411726453e-16
8.05697775709e-17
3.19008924555e-16
7.43911117501e-17
2.5127232106e-16
6.77409637275e-17
1.90735339108e-16
6.05308243838e-17
1.38049213174e-16
5.26822400826e-17
9.3835671711e-17
4.42122892994e-17
5.84831964665e-17
3.53535601205e-17
3.19463382944e-17
2.6540166793e-17
1.37791140094e-17
1.81671389155e-17
3.3552511503e-18
1.04247935997e-17
3.3551273419e-18
4.31469218567e-16
-8.93977162382e-16
8.33121982255e-16
-8.32726783224e-16
1.19928552905e-15
-7.59440365339e-16
1.52664710586e-15
-6.79031325139e-16
1.81362684851e-15
-5.95405532417e-16
2.06013469096e-15
-5.11695548154e-16
2.26733709941e-15
-4.29833244436e-16
2.43670632866e-15
-3.51586145509e-16
2.57053970413e-15
-2.77803447147e-16
2.67109897638e-15
-2.0922856336e-16
2.7414349448e-15
-1.46099788187e-16
2.78388333965e-15
-8.8641954055e-17
2.80145544788e-15
-3.67985845362e-17
2.79680470639e-15
9.57944739015e-18
2.77228914159e-15
5.06235535305e-17
2.73041238117e-15
8.66811057136e-17
2.6734332173e-15
1.18022642935e-16
2.60356311822e-15
1.44988209809e-16
2.52267169223e-15
1.6786846761e-16
2.43256098821e-15
1.87000496761e-16
2.33486488741e-15
2.02727630228e-16
2.23110759515e-15
2.15339409703e-16
2.12258184148e-15
2.25140680015e-16
2.01054114964e-15
2.32410700137e-16
1.89612372806e-15
2.37406992546e-16
1.78025319529e-15
2.40359064508e-16
1.66387009629e-15
2.41496116153e-16
1.54773180186e-15
2.40995805045e-16
1.43257866268e-15
2.3904988225e-16
1.31892818554e-15
2.3581368158e-16
1.20735218444e-15
2.31432398295e-16
1.09837642987e-15
2.26036125823e-16
9.92435388602e-16
2.19729681464e-16
8.89939271683e-16
2.12606935256e-16
7.91232274368e-16
2.04743150448e-16
6.96645270423e-16
1.96195080829e-16
6.06498835828e-16
1.87001709543e-16
5.21125856798e-16
1.77177471851e-16
4.40752298137e-16
1.66707798294e-16
3.65787177111e-16
1.55547155868e-16
2.96558734963e-16
1.43607750683e-16
2.33545424768e-16
1.30756721169e-16
1.77219683177e-16
1.16822904613e-16
1.28238387842e-16
1.01659092489e-16
8.7146584087e-17
8.52993524802e-17
5.43038008393e-17
6.81965371563e-17
2.96538180033e-17
5.1188346664e-17
1.27876893586e-17
3.50345503938e-17
3.11189676363e-18
2.01002020067e-17
6.46674626729e-18
3.93317106139e-16
-1.28738956528e-15
7.59595866167e-16
-1.19893067986e-15
1.0934888288e-15
-1.09328864208e-15
1.39192854952e-15
-9.77414580687e-16
1.65344554211e-15
-8.56947937369e-16
1.87796302768e-15
-7.36248669999e-16
2.06645310573e-15
-6.18335210097e-16
2.22044147433e-15
-5.05552768017e-16
2.34192034809e-15
-3.99325054168e-16
2.43322830235e-15
-3.00539598796e-16
2.49685951989e-15
-2.0968375299e-16
2.53523692094e-15
-1.26997095683e-16
2.55087493827e-15
-5.24228959187e-17
2.54622457191e-15
1.42373737331e-17
2.52362253323e-15
7.32651062831e-17
2.48526249526e-15
1.25083539288e-16
2.43323183202e-15
1.70091414482e-16
2.36939121297e-15
2.08777535491e-16
2.29558557874e-15
2.41620168861e-16
2.21352766116e-15
2.69101716684e-16
2.12450685743e-15
2.9167113525e-16
2.03006621889e-15
3.09797909486e-16
1.93137323905e-15
3.23888360089e-16
1.82947225182e-15
3.34328072692e-16
1.72539668682e-15
3.41508564937e-16
1.6200343981e-15
3.4575690142e-16
1.51407864639e-15
3.47376570993e-16
1.4084255723e-15
3.46666827572e-16
1.3036772743e-15
3.43876997243e-16
1.20028835185e-15
3.39230689639e-16
1.09884812966e-15
3.32941717906e-16
9.99675705623e-16
3.2518514974e-16
9.03272683245e-16
3.16123720072e-16
8.09980632471e-16
3.05886063759e-16
7.20115339396e-16
2.9458129144e-16
6.34025519712e-16
2.82292147893e-16
5.5196937877e-16
2.69070645837e-16
4.74221287204e-16
2.5493790533e-16
4.01058108426e-16
2.39873596591e-16
3.32805008864e-16
2.23810842695e-16
2.69800170072e-16
2.06624166242e-16
2.1243104693e-16
1.8812097399e-16
1.61227765595e-16
1.6805861605e-16
1.16656301687e-16
1.46224490463e-16
7.92850816309e-17
1.2267627735e-16
4.9414792232e-17
9.80697444828e-17
2.6993893393e-17
7.36094068294e-17
1.16449426647e-17
5.03819382102e-17
2.83678458829e-18
2.89082099541e-17
9.30308900359e-18
3.51667936715e-16
-1.63910754205e-15
6.79123400072e-16
-1.52631627871e-15
9.77570851586e-16
-1.3917470796e-15
1.24421022339e-15
-1.2440434083e-15
1.47772242789e-15
-1.09050506197e-15
1.67802747498e-15
-9.36629158124e-16
1.84596799632e-15
-7.8636057492e-16
1.98296746019e-15
-6.42615484384e-16
2.0908584719e-15
-5.07242084857e-16
2.17175515697e-15
-3.81392385639e-16
2.22785104524e-15
-2.65738539026e-16
2.26139872259e-15
-1.60498619344e-16
2.27467905894e-15
-6.5672558106e-17
2.26990852678e-15
1.90264404821e-17
2.24923108618e-15
9.39747528151e-17
2.21452422613e-15
1.59745782431e-16
2.16771053575e-15
2.16858027779e-16
2.11049201142e-15
2.65953782024e-16
2.04444480534e-15
3.07614317008e-16
1.97110923221e-15
3.42479296363e-16
1.89167551196e-15
3.71083412256e-16
1.80740859499e-15
3.94055565254e-16
1.71939199326e-15
4.1189973702e-16
1.62860848581e-15
4.25123111028e-16
1.53592950665e-15
4.34211721522e-16
1.44207987306e-15
4.39579719464e-16
1.34785150544e-15
4.41631259707e-16
1.25381392636e-15
4.40719468688e-16
1.16052709969e-15
4.37173054701e-16
1.06849852907e-15
4.31275971289e-16
9.78170489361e-16
4.23292497678e-16
8.89932859862e-16
4.13445304303e-16
8.04108153078e-16
4.01936390828e-16
7.21046657827e-16
3.88934241359e-16
6.4104125492e-16
3.74573794264e-16
5.64386242711e-16
3.58960079833e-16
4.91318166738e-16
3.42157655271e-16
4.22072888012e-16
3.24191380233e-16
3.56903029312e-16
3.05035718008e-16
2.96122110322e-16
2.84604958126e-16
2.40009163911e-16
2.6273793377e-16
1.88945407633e-16
2.39190972675e-16
1.43354571763e-16
2.13655634384e-16
1.03711458852e-16
1.85867189587e-16
7.04758315736e-17
1.55907892808e-16
4.39236964486e-17
1.2462103196e-16
2.39937107508e-17
9.35358633114e-17
1.03509184829e-17
6.40233207568e-17
2.52076618814e-18
3.67379366073e-17
1.18238379515e-17
3.08351444817e-16
-1.9474241551e-15
5.95393738489e-16
-1.81345329103e-15
8.57072554957e-16
-1.65334221134e-15
1.09064267204e-15
-1.47757160112e-15
1.29498533188e-15
-1.29486883973e-15
1.47004283095e-15
-1.11173175771e-15
1.61652422233e-15
-9.32919151744e-16
1.73574165127e-15
-7.6187071393e-16
1.82933716899e-15
-6.008373321e-16
1.89918966261e-15
-4.51213149265e-16
1.9472801122e-15
-3.13792765202e-16
1.97563097015e-15
-1.88824676051e-16
1.98628728127e-15
-7.62870141122e-17
1.98114809604e-15
2.41187216086e-17
1.9622140238e-15
1.1296021562e-16
1.93114296452e-15
1.90852112897e-16
1.8895973751e-15
2.58451989363e-16
1.83909020871e-15
3.1651019985e-16
1.78100849488e-15
3.65734049311e-16
1.71658125473e-15
4.06881953406e-16
1.6470849286e-15
4.40656728096e-16
1.57337701476e-15
4.67736716794e-16
1.49647066616e-15
4.88766453493e-16
1.41732193562e-15
5.04350588978e-16
1.33649722352e-15
5.15035846157e-16
1.25470110838e-15
5.21330666198e-16
1.17257974973e-15
5.23714369285e-16
1.09072467302e-15
5.22601031344e-16
1.00951258991e-15
5.18370609307e-16
9.29415639736e-16
5.11368497555e-16
8.50799225225e-16
5.01900330527e-16
7.74008114823e-16
4.90228955762e-16
6.99356812186e-16
4.76593014043e-16
6.27092404225e-16
4.61187978688e-16
5.57499971066e-16
4.44174293495e-16
4.90782435345e-16
4.25670621186e-16
4.27173229734e-16
4.05755078476e-16
3.66896524987e-16
3.8445459445e-16
3.10181607269e-16
3.61737085958e-16
2.57290568271e-16
3.37500334348e-16
2.08472357168e-16
3.1155095954e-16
1.64057061165e-16
2.83600423396e-16
1.24411907163e-16
2.53284945184e-16
8.99762090486e-17
2.20298360905e-16
6.1136125927e-17
1.84751085346e-16
3.81007300132e-17
1.47655451653e-16
2.08174061331e-17
1.10821735838e-16
8.9844273242e-18
7.58594749822e-17
2.18957018438e-18
4.35340001041e-17
1.40131461119e-17
2.65011234505e-16
-2.21232096851e-15
5.11654008634e-16
-2.05993624934e-15
7.36377069138e-16
-1.8777529028e-15
9.36735797599e-16
-1.67787462775e-15
1.11181674141e-15
-1.46993724743e-15
1.26153221977e-15
-1.26145174503e-15
1.38647852899e-15
-1.05790600505e-15
1.4878216236e-15
-8.63214363957e-16
1.56700066397e-15
-6.79992017836e-16
1.62568111669e-15
-5.09860518503e-16
1.66558488744e-15
-3.53691175856e-16
1.68844491231e-15
-2.11824178385e-16
1.6960411632e-15
-8.41362768053e-17
1.69041708485e-15
2.97657028719e-17
1.67307944846e-15
1.30431845752e-16
1.64543156381e-15
2.18532159168e-16
1.60895853584e-15
2.94968579312e-16
1.564914537e-15
3.60507946397e-16
1.51461426236e-15
4.16065423221e-16
1.4590057039e-15
4.62429061528e-16
1.39921170667e-15
5.00476745908e-16
1.33598075701e-15
5.30925075321e-16
1.27021837507e-15
5.54554966208e-16
1.20258221504e-15
5.72007789574e-16
1.13365413971e-15
5.83950572718e-16
1.06406229556e-15
5.90953477778e-16
9.9423831438e-16
5.93540950508e-16
9.24629242066e-16
5.92191899372e-16
8.55671568503e-16
5.87340480125e-16
7.87697609685e-16
5.79370547549e-16
7.20922631492e-16
5.68613142571e-16
6.55775090886e-16
5.55386487796e-16
5.92442671503e-16
5.39937664386e-16
5.31151050539e-16
5.22488425516e-16
4.72117889649e-16
5.03217517171e-16
4.15540600421e-16
4.82259158186e-16
3.61610388499e-16
4.59698757283e-16
3.10488911998e-16
4.35563148975e-16
2.62419143724e-16
4.09818352246e-16
2.17575601587e-16
3.82342141216e-16
1.76205059642e-16
3.5291647241e-16
1.38597054948e-16
3.21213501816e-16
1.05053838817e-16
2.86823719617e-16
7.5965797575e-17
2.49410071149e-16
5.16057125668e-17
2.09113014861e-16
3.21667784163e-17
1.67097211084e-16
1.75784795319e-17
1.25408316691e-16
7.59023940793e-18
8.58489682192e-17
1.84983693857e-18
4.92717695795e-17
1.58628551839e-17
2.22606182045e-16
-2.43502674057e-15
4.29803124745e-16
-2.26703646061e-15
6.1843800664e-16
-2.06620227411e-15
7.86451170934e-16
-1.84583274384e-15
9.3298162166e-16
-1.6164254568e-15
1.05796865824e-15
-1.38639833145e-15
1.16187895265e-15
-1.16181882441e-15
1.24571080796e-15
-9.47040739837e-16
1.31072750715e-15
-7.4498008913e-16
1.35836811991e-15
-5.57462820975e-16
1.39015877452e-15
-3.85450082935e-16
1.40764395785e-15
-2.29318919488e-16
1.41240125967e-15
-8.89159300568e-17
1.40598263193e-15
3.61790443386e-17
1.38980228e-15
1.46622152101e-16
1.36528027817e-15
2.43192165174e-16
1.33347316552e-15
3.26812888963e-16
1.29558517561e-15
3.98439467736e-16
1.2526279431e-15
4.59046976968e-16
1.20550412832e-15
5.09564787193e-16
1.15507081726e-15
5.50936018553e-16
1.10197457752e-15
5.83994719148e-16
1.04688162293e-15
6.09589649284e-16
9.90454339176e-16
6.2844642456e-16
9.3313602827e-16
6.41291757796e-16
8.75325734322e-16
6.48740087043e-16
8.1745891054e-16
6.51385337944e-16
7.59916163578e-16
6.49753542478e-16
7.0289309884e-16
6.44304580273e-16
6.46738939257e-16
6.35469984338e-16
5.91753790925e-16
6.23608565623e-16
5.38082050219e-16
6.09048313061e-16
4.85934587993e-16
5.92072499587e-16
4.35518899494e-16
5.72917358532e-16
3.86976223206e-16
5.51772418833e-16
3.40464209819e-16
5.28780271343e-16
2.96110290534e-16
5.04030048892e-16
2.54131378039e-16
4.77552043192e-16
2.14657505632e-16
4.49301497062e-16
1.77851892243e-16
4.19144277496e-16
1.43922886774e-16
3.8684018819e-16
1.13102152363e-16
3.52028440236e-16
8.5665689015e-17
3.14264760154e-16
6.18807567102e-17
2.73189174542e-16
4.20170240755e-17
2.289801083e-16
2.61832869872e-17
1.82932905645e-16
1.43097147894e-17
1.37283736595e-16
6.17762736915e-18
9.39816775802e-17
1.50570337107e-18
5.39436083796e-17
1.73686452328e-17
1.82225809624e-16
-2.61697994517e-15
3.51509610073e-16
-2.43661071749e-15
5.05590268981e-16
-2.22022260972e-15
6.42662281039e-16
-1.98285924314e-15
7.61915126858e-16
-1.73564393948e-15
8.63263541218e-16
-1.48773487005e-15
9.47089799147e-16
-1.24565442577e-15
1.01421739867e-15
-1.01417239781e-15
1.06571071061e-15
-7.96448908685e-16
1.10279428992e-15
-5.94504221032e-16
1.12677816524e-15
-4.09387165671e-16
1.13898838823e-15
-2.41479691828e-16
1.14079331406e-15
-9.06774939063e-17
1.13352012867e-15
4.34935927327e-17
1.1183864299e-15
1.61786369497e-16
1.09654256824e-15
2.65063795741e-16
1.06902225916e-15
3.5437415316e-16
1.03675910955e-15
4.30729691021e-16
1.00061820462e-15
4.95213886233e-16
9.6134703034e-16
5.48856082158e-16
9.19599052663e-16
5.92653862216e-16
8.75970075531e-16
6.27588345613e-16
8.30975229961e-16
6.54513135393e-16
7.85189289775e-16
6.74291317962e-16
7.38815191095e-16
6.87647698043e-16
6.92291711737e-16
6.95285340617e-16
6.45872991233e-16
6.97821198306e-16
5.9983541769e-16
6.9581785662e-16
5.54418040252e-16
6.89780041317e-16
5.09709355882e-16
6.80141838952e-16
4.65988482259e-16
6.67315857037e-16
4.23416706714e-16
6.51628924286e-16
3.82115310549e-16
6.33385235441e-16
3.42215073118e-16
6.12827410301e-16
3.03843556506e-16
5.90156712728e-16
2.67093283377e-16
5.65518005171e-16
2.32108546249e-16
5.39007203434e-16
1.98999427198e-16
5.10650295568e-16
1.6789659155e-16
4.80396593583e-16
1.38937061729e-16
4.48097423207e-16
1.12278191961e-16
4.13492738172e-16
8.81298931313e-17
3.76197946893e-16
6.66493944681e-17
3.35739998156e-16
4.80868401409e-17
2.91751353576e-16
3.26163993468e-17
2.44447613271e-16
2.0320138697e-17
1.95237407549e-16
1.11013946714e-17
1.46501843861e-16
4.79445157599e-18
1.00293296949e-16
1.16875248881e-18
5.75696082439e-17
1.85374496838e-17
1.4398766475e-16
-2.76090429641e-15
2.77780118217e-16
-2.57039422988e-15
3.99316781659e-16
-2.34178774121e-15
5.07254008982e-16
-2.0907656498e-15
6.00865397634e-16
-1.82924637546e-15
6.8002326764e-16
-1.56691438063e-15
7.45014875029e-16
-1.3106727296e-15
7.96484144523e-16
-1.0656710649e-15
8.35301846978e-16
-8.35273289863e-16
8.62491274141e-16
-6.21674324046e-16
8.79167140499e-16
-4.26019158331e-16
8.86380442798e-16
-2.48746037804e-16
8.85325194276e-16
-8.96748967658e-17
8.77167907363e-16
5.16878388779e-17
8.62883805103e-16
1.761029828e-16
8.43448563871e-16
2.84521162146e-16
8.1973700145e-16
3.78111084726e-16
7.92558039004e-16
4.57933835875e-16
7.62609338128e-16
5.25188208507e-16
7.30517718614e-16
5.80973198708e-16
6.96821080146e-16
6.2637590873e-16
6.61945786129e-16
6.62455750575e-16
6.26295501126e-16
6.90132337187e-16
5.9027508684e-16
7.10326417459e-16
5.54125729794e-16
7.23816906525e-16
5.18081485929e-16
7.31340975227e-16
4.82358767193e-16
7.33563611844e-16
4.47113789053e-16
7.31080001928e-16
4.12464888478e-16
7.24412653776e-16
3.7857306662e-16
7.14024888776e-16
3.45515136402e-16
7.00334244077e-16
3.1346402388e-16
6.83692856975e-16
2.82439792343e-16
6.64401587863e-16
2.52546736127e-16
6.42714639581e-16
2.23832099911e-16
6.18834503961e-16
1.96430672822e-16
5.92914713492e-16
1.70403092451e-16
5.65040460362e-16
1.45841713044e-16
5.35237673818e-16
1.2279035638e-16
5.03445222262e-16
1.01375997913e-16
4.69507371565e-16
8.17225980147e-17
4.33147929845e-16
6.39607495357e-17
3.93962033342e-16
4.82593403475e-17
3.51461194932e-16
3.47338948647e-17
3.05274434115e-16
2.35251984465e-17
2.55661285313e-16
1.46364384868e-17
2.04122958005e-16
7.99388442951e-18
1.53143962398e-16
3.45030406869e-18
1.04836701447e-16
8.41306455007e-19
6.01789879181e-17
1.93787496297e-17
1.08421752867e-16
-2.86930953974e-15
2.09199831429e-16
-2.67103151563e-15
3.0054281323e-16
-2.43314276169e-15
3.81411804243e-16
-2.17165209611e-15
4.51236465895e-16
-1.89910488101e-15
5.09872697121e-16
-1.62559905811e-15
5.57481029606e-16
-1.35830466555e-15
5.94535053179e-16
-1.10275111065e-15
6.21699935542e-16
-8.62463488306e-16
6.39799970773e-16
-6.39774810249e-16
6.49738264574e-16
-4.3592057051e-16
6.52416676676e-16
-2.51379410799e-16
6.48768638673e-16
-8.59961419593e-17
6.39665332835e-16
6.07190553528e-17
6.2603569679e-16
1.89647210944e-16
6.08763546265e-16
3.01827423763e-16
5.88471322513e-16
3.98386525971e-16
5.6587072311e-16
4.80560914387e-16
5.41419331145e-16
5.49560724536e-16
5.15754128141e-16
6.06609884014e-16
4.89270873913e-16
6.52863515731e-16
4.62279862093e-16
6.89411593767e-16
4.35142810949e-16
7.17286982746e-16
4.08079886219e-16
7.37412092657e-16
3.81176695343e-16
7.50641719876e-16
3.54743261226e-16
7.57780331093e-16
3.28838335287e-16
7.59489873906e-16
3.03532595663e-16
7.56396627127e-16
2.78896041048e-16
7.49043439598e-16
2.55035722107e-16
7.37922840731e-16
2.31925224514e-16
7.2343942421e-16
2.09660216577e-16
7.05968373505e-16
1.88232418764e-16
6.85810889401e-16
1.67710030944e-16
6.63225173481e-16
1.4812880887e-16
6.38411672851e-16
1.29514812733e-16
6.1152169148e-16
1.11907857667e-16
5.82636126291e-16
9.53631486024e-17
5.51777447514e-16
7.99078734314e-17
5.18875055402e-16
6.56435054997e-17
4.83765536399e-16
5.26258535102e-17
4.46158847665e-16
4.09554148351e-17
4.05638630642e-16
3.0711352695e-17
3.61706027424e-16
2.19877409809e-17
3.1399994413e-16
1.48253307453e-17
2.62822552386e-16
9.19868443202e-18
2.09749887213e-16
5.01509967112e-18
1.57327980662e-16
2.16264472262e-18
1.07690535626e-16
5.27224273977e-19
6.18153273019e-17
1.99058426822e-17
7.5740342707e-17
-2.94507531035e-15
1.46090663629e-16
-2.74136800155e-15
2.09678838304e-16
-2.49677891684e-15
2.65746847581e-16
-2.22774892997e-15
3.13801937063e-16
-1.94720407582e-15
3.53697181483e-16
-1.66552496394e-15
3.85453163692e-16
-1.39009151333e-15
4.09413700721e-16
-1.12675085342e-15
4.2603310529e-16
-8.79120965428e-16
4.35932780893e-16
-6.49711371442e-16
4.39813789642e-16
-4.3980870713e-16
4.38381022984e-16
-2.49966072124e-16
4.32382092073e-16
-8.00282152581e-17
4.22530237093e-16
7.05330172049e-17
4.09585067714e-16
2.02597260889e-16
3.94212495876e-16
3.17253769567e-16
3.76948688467e-16
4.15671981611e-16
3.58365750947e-16
4.99161628042e-16
3.38887036088e-16
5.69014381609e-16
3.1897581084e-16
6.26542182351e-16
2.98927077866e-16
6.72932951939e-16
2.78992848319e-16
7.09339497531e-16
2.59341377963e-16
7.36866837035e-16
2.40260425721e-16
7.56510525791e-16
2.2178200067e-16
7.69145039121e-16
2.03985545436e-16
7.75592336986e-16
1.86926291641e-16
7.76570929644e-16
1.70619154577e-16
7.72714079667e-16
1.55075325542e-16
7.64595536149e-16
1.40296302867e-16
7.52711535295e-16
1.26266298631e-16
7.37478002437e-16
1.12978777234e-16
7.19268948261e-16
1.00391349769e-16
6.98387962465e-16
8.85158429905e-17
6.75091748203e-16
7.7351388523e-17
6.49581223665e-16
6.68500869379e-17
6.21992350277e-16
5.70939254301e-17
5.92410727293e-16
4.80329066129e-17
5.60842551966e-16
3.96984896186e-17
5.27216032138e-16
3.2114276442e-17
4.91355154045e-16
2.53120078399e-17
4.52963205077e-16
1.93277715907e-17
4.11616320618e-16
1.42104507255e-17
3.66817094387e-16
9.98959026277e-18
3.18221351026e-16
6.62963225382e-18
2.66174956717e-16
4.0715659003e-18
2.12310344615e-16
2.20258048886e-18
1.59195573316e-16
9.45443744934e-19
1.08949888038e-16
2.29537603917e-19
6.25321451325e-17
2.0135560892e-17
4.59354868248e-17
-2.99101471907e-15
8.86501467869e-17
-2.78381621251e-15
1.26992043915e-16
-2.53515925286e-15
1.60506946779e-16
-2.26131452208e-15
1.88822539073e-16
-1.97555951693e-15
2.1183062413e-16
-1.68833539388e-15
2.29292722308e-16
-1.40757941473e-15
2.41523826322e-16
-1.13893066156e-15
2.48730748052e-16
-8.86367488429e-16
2.51375497581e-16
-6.52408035526e-16
2.49948669259e-16
-4.38385155406e-16
2.4493638767e-16
-2.4496037756e-16
2.36962909527e-16
-7.20084703941e-17
2.26518240378e-16
8.09828602308e-17
2.1422741897e-16
2.14940554564e-16
2.00573511703e-16
3.30932124446e-16
1.86032345556e-16
4.30227006002e-16
1.71045394669e-16
5.14169950059e-16
1.5596882886e-16
5.84116852376e-16
1.4108227386e-16
6.41404197753e-16
1.26670143582e-16
6.87322135891e-16
1.12946642078e-16
7.23086933954e-16
1.00010284897e-16
7.49815911699e-16
8.79827978552e-17
7.68558619522e-16
7.68618907736e-17
7.80242285195e-16
6.67289328691e-17
7.85731683483e-16
5.75018149837e-17
7.857575966e-16
4.92269312415e-17
7.80991822409e-16
4.18152619785e-17
7.72010235873e-16
3.51887926839e-17
7.59320211532e-16
2.9315607019e-17
7.43348666409e-16
2.4128058319e-17
7.24466164629e-16
1.95528855827e-17
7.02973509027e-16
1.55641103525e-17
6.79119897389e-16
1.20595163147e-17
6.53094611131e-16
9.02084027084e-18
6.25036195129e-16
6.41751329684e-18
5.950187323e-16
4.2223788102e-18
5.63043613222e-16
2.41498673181e-18
5.29028867475e-16
9.84866587169e-19
4.92791745281e-16
-7.67508447686e-20
4.54030947622e-16
-7.84744818351e-19
4.12320442972e-16
-1.14241044458e-18
3.67172214899e-16
-1.18344967053e-18
3.18265753541e-16
-9.98627030663e-19
2.65991951542e-16
-7.10796904638e-19
2.12020033435e-16
-4.2205771186e-19
1.58905996406e-16
-1.92294481039e-19
1.08721156042e-16
-4.9367815895e-20
6.23887315376e-17
2.00860432648e-17
1.91069929139e-17
-3.0100620104e-15
3.68091514951e-17
-2.80132885365e-15
5.24244618323e-17
-2.55079586942e-15
6.56801481197e-17
-2.27461543066e-15
7.63025131837e-17
-1.98622490921e-15
8.41162231161e-17
-1.69603786196e-15
8.88937342733e-17
-1.41238302107e-15
9.06982696065e-17
-1.14077506188e-15
8.96516027583e-17
-8.85361775601e-16
8.59859767787e-17
-6.48784276083e-16
7.99942316447e-17
-4.32386982548e-16
7.20282055369e-17
-2.36931974932e-16
6.24455184191e-17
-6.24317547451e-17
5.16283626565e-17
9.1774637226e-17
3.99831369635e-17
2.26504020557e-16
2.79729711389e-17
3.4291742617e-16
1.58967392035e-17
4.4226524984e-16
4.12593428814e-18
5.25946318778e-16
-7.06637983661e-18
5.95346475553e-16
-1.74895622739e-17
6.51845055159e-16
-2.69354373923e-17
6.96786664419e-16
-3.52646845277e-17
7.31435446005e-16
-4.24023267784e-17
7.56965111851e-16
-4.82926921011e-17
7.74465946254e-16
-5.29430288573e-17
7.84911937396e-16
-5.6432436177e-17
7.89181377401e-16
-5.87710844589e-17
7.88063556039e-16
-6.00233807113e-17
7.82235772125e-16
-6.02648721373e-17
7.72290701056e-16
-5.96676565085e-17
7.58729124709e-16
-5.82856966196e-17
7.42002491094e-16
-5.62821848177e-17
7.22462616716e-16
-5.37385251976e-17
7.00417726315e-16
-5.07410015739e-17
6.76109713765e-16
-4.73794376273e-17
6.49720994754e-16
-4.37275054737e-17
6.21380390963e-16
-3.9842200026e-17
5.91150625843e-16
-3.58223456362e-17
5.59023700338e-16
-3.17054941261e-17
5.24912720047e-16
-2.75350167175e-17
4.88628624346e-16
-2.33657802836e-17
4.49867242092e-16
-1.9234539568e-17
4.08207753885e-16
-1.52371181266e-17
3.63174825378e-16
-1.14516942804e-17
3.14482401566e-16
-8.02332368975e-18
2.62565125334e-16
-5.11772968686e-18
2.09111338469e-16
-2.84446133811e-18
1.56631647519e-16
-1.24359399953e-18
1.07120592204e-16
-3.07738453113e-19
6.14507130635e-17
1.97782397855e-17
-4.90585122551e-18
-3.00520777288e-15
-9.58821270608e-18
-2.79668521132e-15
-1.42456563119e-17
-2.54617201424e-15
-1.90186240821e-17
-2.26987874488e-15
-2.41325182083e-17
-1.98115232543e-15
-2.97818495235e-17
-1.69043306827e-15
-3.62034818291e-17
-1.4059952646e-15
-4.35045279256e-17
-1.13351387725e-15
-5.17122454921e-17
-8.77172381601e-16
-6.07072705284e-17
-6.39630579296e-16
-7.05420122533e-17
-4.22534757058e-16
-8.09762562576e-17
-2.26504521629e-16
-9.17751353792e-17
-5.16126310883e-17
-1.02707833547e-16
1.0271549025e-16
-1.13532988033e-16
2.37326552682e-16
-1.23963950177e-16
3.5330998997e-16
-1.33730370513e-16
4.52013739905e-16
-1.42585911577e-16
5.34813081942e-16
-1.50352976302e-16
6.03126932612e-16
-1.56865182129e-16
6.58367916406e-16
-1.6198825086e-16
7.01918702746e-16
-1.65642576586e-16
7.35085524251e-16
-1.67783617954e-16
7.59090278961e-16
-1.6840478099e-16
7.75066226154e-16
-1.675309648e-16
7.84029088196e-16
-1.65242526725e-16
7.86884431889e-16
-1.61635143341e-16
7.84439113042e-16
-1.56807712581e-16
7.77395847485e-16
-1.5089887343e-16
7.66370351948e-16
-1.44035092443e-16
7.51878523524e-16
-1.36395676581e-16
7.34354265013e-16
-1.2810302144e-16
7.14164541866e-16
-1.19302015543e-16
6.91606568896e-16
-1.10125029258e-16
6.66920095646e-16
-1.00678100229e-16
6.40278701152e-16
-9.10913307007e-17
6.11798168534e-16
-8.14679924686e-17
5.81530807529e-16
-7.19008619087e-17
5.49461819076e-16
-6.24891334012e-17
5.15495330522e-16
-5.33057592792e-17
4.79440774449e-16
-4.44384287155e-17
4.40995625485e-16
-3.59828149891e-17
3.99747500605e-16
-2.80481799226e-17
3.55243759317e-16
-2.07986739189e-17
3.07234622984e-16
-1.44292461383e-17
2.56198449368e-16
-9.14229847187e-18
2.03825438239e-16
-5.06288034263e-18
1.52550991208e-16
-2.21112391688e-18
1.042680622e-16
-5.45555661514e-19
5.97852983386e-17
1.92326577272e-17
-2.61695688095e-17
-2.97908199559e-15
-5.06505626986e-17
-2.7722540803e-15
-7.32764950044e-17
-2.5235942789e-15
-9.39850784851e-17
-2.24920615353e-15
-1.129749265e-16
-1.96219625424e-15
-1.3044366927e-16
-1.67312337797e-15
-1.46639757698e-16
-1.38984635181e-15
-1.61795463829e-16
-1.11839783313e-15
-1.76102752106e-16
-8.62883148946e-16
-1.89654139724e-16
-6.26045659914e-16
-2.0260777551e-16
-4.0959284921e-16
-2.14929774532e-16
-2.14243013869e-16
-2.26513669187e-16
-3.99908844149e-17
-2.37318872823e-16
1.13544202744e-16
-2.47229665417e-16
2.47236430865e-16
-2.56014717769e-16
3.62173134207e-16
-2.63602728684e-16
4.59619654007e-16
-2.69801668937e-16
5.41028091775e-16
-2.74490737596e-16
6.0782023909e-16
-2.77565259108e-16
6.61434777608e-16
-2.78937317763e-16
7.03277067381e-16
-2.78564123227e-16
7.34692416263e-16
-2.764054982e-16
7.56942051374e-16
-2.72506403288e-16
7.71176864225e-16
-2.66923381862e-16
7.78459307978e-16
-2.59766755264e-16
7.79719386556e-16
-2.51136426472e-16
7.75796710657e-16
-2.41148712514e-16
7.67421219401e-16
-2.29981126296e-16
7.552138785e-16
-2.17813656695e-16
7.39698273442e-16
-2.04799186222e-16
7.21332974283e-16
-1.91120806784e-16
7.00478430637e-16
-1.76925463732e-16
6.77424119287e-16
-1.6241078198e-16
6.52400326069e-16
-1.47711192149e-16
6.25575396627e-16
-1.32971632122e-16
5.97057416832e-16
-1.18324289269e-16
5.66887301808e-16
-1.03910059737e-16
5.35041912037e-16
-8.98303894758e-17
5.01421366561e-16
-7.62134770293e-17
4.65828291922e-16
-6.31881671156e-17
4.2796705075e-16
-5.0879623234e-17
3.8744039584e-16
-3.94617549355e-17
3.43822578098e-16
-2.91332649621e-17
2.96908225797e-16
-2.01477614346e-17
2.47215938334e-16
-1.27416201573e-17
1.96420881752e-16
-7.0492614125e-18
1.46857562926e-16
-3.07621614447e-18
1.0029556107e-16
-7.58550859274e-19
5.74680921914e-17
1.8474042516e-17
-4.48496719056e-17
-2.93426802278e-15
-8.67089947609e-17
-2.73044683662e-15
-1.25091434266e-16
-2.48525541839e-15
-1.59763496537e-16
-2.21448003759e-15
-1.90881145747e-16
-1.93112296802e-15
-2.18551724139e-16
-1.64541210393e-15
-2.43195939794e-16
-1.36525691522e-15
-2.65076863095e-16
-1.09655963167e-15
-2.84525077771e-16
-8.43464753306e-16
-3.01838309817e-16
-6.08787703708e-16
-3.17260449635e-16
-3.94216265484e-16
-3.30912155321e-16
-2.00565707946e-16
-3.42907579958e-16
-2.79751441342e-17
-3.53311941654e-16
1.23977434317e-16
-3.62157272009e-16
2.56038324526e-16
-3.69344038981e-16
3.6935620432e-16
-3.74804006671e-16
4.65119788522e-16
-3.78497365665e-16
5.44764443217e-16
-3.80381304304e-16
6.0971426564e-16
-3.8039518322e-16
6.61430451938e-16
-3.78475409354e-16
7.01336845684e-16
-3.74608812416e-16
7.30814858654e-16
-3.68803650085e-16
7.51126062839e-16
-3.61088371599e-16
7.63474966961e-16
-3.51570626108e-16
7.68928788879e-16
-3.40341978685e-16
7.684782345e-16
-3.2751194555e-16
7.62976637871e-16
-3.13226602406e-16
7.53166882601e-16
-2.97686779908e-16
7.3968877594e-16
-2.81051235248e-16
7.23091719765e-16
-2.63541679073e-16
7.03831495912e-16
-2.45368381225e-16
6.82268647776e-16
-2.26661568589e-16
6.58708497477e-16
-2.07633757828e-16
6.3336731934e-16
-1.88449030203e-16
6.06406840271e-16
-1.69319235524e-16
5.77918005667e-16
-1.50379461875e-16
5.479424371e-16
-1.31783942085e-16
5.16447562788e-16
-1.13705483638e-16
4.83324219619e-16
-9.62546664601e-17
4.48381287611e-16
-7.96048158829e-17
4.11326850104e-16
-6.39469095963e-17
3.71781078871e-16
-4.94809441624e-17
3.29353880823e-16
-3.64596649232e-17
2.83887571251e-16
-2.51922030985e-17
2.35939090671e-16
-1.59252004352e-17
1.8715431579e-16
-8.81000327908e-18
1.39742783003e-16
-3.84733809237e-18
9.53323538474e-17
-9.50397781181e-19
5.45716802798e-17
1.75245061018e-17
-6.10816360972e-17
-2.87313352406e-15
-1.18038586956e-16
-2.67354091231e-15
-1.70087564884e-16
-2.43325199082e-15
-2.1689390188e-16
-2.167725876e-15
-2.58472662025e-16
-1.88959429955e-15
-2.94991289901e-16
-1.60892717544e-15
-3.26830137151e-16
-1.33346967072e-15
-3.54390796645e-16
-1.06904604545e-15
-3.78101260992e-16
-8.19729259992e-16
-3.9839867204e-16
-5.88477353611e-16
-4.15664274149e-16
-3.76930173071e-16