/*--------------------------------*- C++ -*----------------------------------*\
| =========                 |                                                 |
| \\      /  F ield         | OpenFOAM: The Open Source CFD Toolbox           |
|  \\    /   O peration     | Version:  3.0.1                                 |
|   \\  /    A nd           | Web:      www.OpenFOAM.org                      |
|    \\/     M anipulation  |                                                 |
\*---------------------------------------------------------------------------*/
FoamFile
{
    version     2.0;
    format      ascii;
    class       volSymmTensorField;
    location    "50000";
    object      R;
}
// * * * * * * * * * * * * * * * * * * * * * * * * * * * * * * * * * * * * * //

dimensions      [0 2 -2 0 0 0 0];

internalField   nonuniform List<symmTensor> 
2500
(
(0.000641160614275 2.47728332492e-05 2.47721353533e-05 0.000641160614165 1.14883693864e-17 0.000641160614386)
(0.000654218362869 7.31053064975e-05 2.49143609522e-05 0.00065421836276 2.94607374244e-17 0.000654218362977)
(0.000677938971107 0.000118975617013 2.51584280256e-05 0.000677938971002 3.84723003053e-17 0.000677938971211)
(0.000709866416573 0.000162366060631 2.54559154568e-05 0.000709866416475 6.39513066939e-17 0.000709866416672)
(0.000747767981013 0.000203321787443 2.57586900394e-05 0.000747767980922 1.22529245029e-16 0.000747767981104)
(0.000789781715487 0.000241954996531 2.60236158177e-05 0.000789781715404 1.52947143042e-16 0.000789781715569)
(0.000834452245447 0.000278433785777 2.62146352516e-05 0.000834452245374 1.67652720997e-16 0.000834452245519)
(0.00088069996996 0.000312963607186 2.63033926245e-05 0.000880699969898 1.62627359696e-16 0.000880699970022)
(0.000927760898633 0.000345768170121 2.62691939145e-05 0.000927760898582 1.39410479896e-16 0.000927760898684)
(0.0009751198267 0.000377073030604 2.60986862788e-05 0.00097511982666 1.29247013092e-16 0.00097511982674)
(0.00102244800873 0.000407092729046 2.57853854497e-05 0.0010224480087 8.30974878154e-17 0.00102244800876)
(0.00106954961103 0.00043602135668 2.53290704232e-05 0.00106954961101 3.35594951338e-17 0.00106954961104)
(0.00111631778151 0.000464026159093 2.47350389577e-05 0.00111631778151 -3.24290555075e-17 0.00111631778152)
(0.0011626997096 0.000491243749224 2.40132304054e-05 0.0011626997096 -1.22936060643e-16 0.0011626997096)
(0.00120866955441 0.000517778510885 2.31772446722e-05 0.00120866955442 -2.07938745955e-16 0.0012086695544)
(0.00125420804361 0.00054370277876 2.22433067539e-05 0.00125420804363 -2.98636356988e-16 0.00125420804359)
(0.00129928761509 0.000569058377414 2.1229235274e-05 0.00129928761512 -3.85575315403e-16 0.00129928761507)
(0.00134386207425 0.000593859105199 2.0153474513e-05 0.00134386207429 -4.69188123151e-16 0.00134386207422)
(0.00138785983074 0.000618093766448 1.90342403847e-05 0.00138785983078 -5.46082383407e-16 0.0013878598307)
(0.00143117985162 0.000641729387132 1.78888165344e-05 0.00143117985166 -6.10480453225e-16 0.00143117985158)
(0.001473689528 0.000664714292856 1.67330197932e-05 0.00147368952805 -6.65539410155e-16 0.00147368952795)
(0.00151522370453 0.000686980779084 1.55808381109e-05 0.00151522370458 -7.04679288057e-16 0.00151522370449)
(0.00155558416776 0.000708447152485 1.44442297019e-05 0.00155558416781 -7.31357135938e-16 0.00155558416771)
(0.00159453892835 0.000729018960714 1.33330628411e-05 0.0015945389284 -7.3768658511e-16 0.0015945389283)
(0.00163182065671 0.000748589252415 1.22551695591e-05 0.00163182065676 -7.28960450884e-16 0.00163182065666)
(0.00166712363067 0.000767037710315 1.12164847091e-05 0.00166712363072 -7.08593658074e-16 0.00166712363062)
(0.00170009851334 0.000784228471457 1.0221242914e-05 0.00170009851339 -6.70497026139e-16 0.00170009851329)
(0.00173034417907 0.000800006383395 9.27220906528e-06 0.00173034417912 -6.16253050379e-16 0.00173034417902)
(0.00175739562167 0.000814191331512 8.37092227062e-06 0.00175739562171 -5.48831701202e-16 0.00175739562162)
(0.00178070667601 0.00082657008714 7.51793774748e-06 0.00178070667606 -4.71062394593e-16 0.00178070667597)
(0.00179962581678 0.000836884847529 6.71305647097e-06 0.00179962581682 -3.76933419651e-16 0.00179962581674)
(0.00181336259976 0.000844817206244 5.95553527881e-06 0.0018133625998 -2.72698629207e-16 0.00181336259972)
(0.00182094130053 0.000849965633954 5.2442747888e-06 0.00182094130057 -1.61359715577e-16 0.0018209413005)
(0.00182113688811 0.000851813537255 4.57798472013e-06 0.00182113688814 -4.36992980839e-17 0.00182113688807)
(0.00181238660021 0.000849683404728 3.95532900018e-06 0.00181238660024 7.63930370675e-17 0.00181238660018)
(0.00179266822973 0.000842670196265 3.37505519949e-06 0.00179266822976 1.95578542839e-16 0.00179266822971)
(0.00175933469983 0.000829543750736 2.83611574074e-06 0.00175933469985 3.10616337214e-16 0.0017593346998)
(0.00170889674487 0.000808605860481 2.33779228656e-06 0.00170889674489 4.15792463645e-16 0.00170889674485)
(0.00163676106225 0.000777485500273 1.87984248198e-06 0.00163676106227 5.06210367593e-16 0.00163676106224)
(0.00153698712343 0.000732867800387 1.46270327793e-06 0.00153698712345 5.74709298596e-16 0.00153698712342)
(0.00140229313438 0.00067022577422 1.08781513568e-06 0.00140229313439 6.10936903626e-16 0.00140229313437)
(0.0012249839792 0.00058391903062 7.58180577157e-07 0.00122498397921 6.02735064714e-16 0.00122498397919)
(0.00100042453474 0.000468966529755 4.79280528001e-07 0.00100042453474 5.37022396043e-16 0.00100042453474)
(0.000735657779707 0.00032761798938 2.60001065341e-07 0.000735657779709 4.09207725081e-16 0.000735657779705)
(0.000462049589194 0.00018160925908 1.10773692388e-07 0.000462049589195 2.43933073289e-16 0.000462049589193)
(0.000233587405057 7.10427786616e-05 3.2837558408e-08 0.000233587405057 1.01443212371e-16 0.000233587405056)
(8.95444479427e-05 1.7317366028e-05 5.87841955447e-09 8.95444479427e-05 2.6051998657e-17 8.95444479426e-05)
(2.36244215107e-05 2.23740888349e-06 5.19963383611e-10 2.36244215107e-05 3.52149088691e-18 2.36244215107e-05)
(4.13867008887e-06 1.32232890709e-07 1.7826979398e-11 4.13867008887e-06 2.1655157297e-19 4.13867008887e-06)
(7.29785015547e-06 4.02182664253e-08 1.76325253065e-12 7.29785015547e-06 6.82372757197e-20 7.29785015547e-06)
(0.000654217559579 2.49149933636e-05 7.3103266305e-05 0.000654217559471 -5.07235197083e-19 0.000654217559688)
(0.000667265076773 7.35243861485e-05 7.35225336691e-05 0.000667265076667 1.80212196723e-17 0.00066726507688)
(0.000690967007793 0.000119656180627 7.42434505924e-05 0.000690967007691 6.01849106429e-17 0.000690967007896)
(0.000722866103407 0.000163289877451 7.51251274379e-05 0.00072286610331 1.24024869372e-16 0.000722866103503)
(0.00076072322374 0.000204465525843 7.6027196126e-05 0.000760723223651 2.36749594458e-16 0.000760723223829)
(0.000802664982487 0.000243288495771 7.68233591061e-05 0.000802664982406 3.06807254948e-16 0.000802664982567)
(0.000847221344353 0.000279919582776 7.74074686274e-05 0.000847221344282 3.52088507193e-16 0.000847221344424)
(0.000893297115033 0.000314557735888 7.76954375187e-05 0.000893297114973 3.7963123512e-16 0.000893297115094)
(0.00094011387152 0.000347421914207 7.76252385412e-05 0.00094011387147 3.46403994353e-16 0.00094011387157)
(0.000987144761913 0.000378735239352 7.71560926063e-05 0.000987144761875 2.77539940803e-16 0.000987144761952)
(0.00103405328637 0.000408712345066 7.62672178874e-05 0.00103405328634 1.44247933303e-16 0.00103405328639)
(0.00108064036964 0.000437549867684 7.49561921205e-05 0.00108064036962 -2.18750330347e-17 0.00108064036966)
(0.00112680061478 0.000465419750595 7.32369022166e-05 0.00112680061477 -2.39279091666e-16 0.00112680061479)
(0.00117248716701 0.000492464999865 7.11370898122e-05 0.00117248716701 -4.74344136432e-16 0.001172487167)
(0.00121768413089 0.000518797539344 6.86955680965e-05 0.0012176841309 -7.12323888554e-16 0.00121768413088)
(0.00126238541703 0.000544497814944 6.59592447088e-05 0.00126238541705 -9.67990398656e-16 0.00126238541701)
(0.00130657897319 0.000569615787256 6.29801190756e-05 0.00130657897321 -1.21160388042e-15 0.00130657897316)
(0.00135023545934 0.000594172944804 5.98124290048e-05 0.00135023545937 -1.44726137018e-15 0.00135023545931)
(0.00139330051309 0.00061816497083 5.65100993536e-05 0.00139330051312 -1.65977506086e-15 0.00139330051305)
(0.00143568981481 0.000641564712676 5.31246076383e-05 0.00143568981485 -1.84421147392e-15 0.00143568981477)
(0.00147728620557 0.000664325132222 4.9703333438e-05 0.00147728620562 -1.99539480115e-15 0.00147728620553)
(0.00151793814255 0.000686381953501 4.62884100102e-05 0.0015179381426 -2.10654088126e-15 0.00151793814251)
(0.00155745880335 0.000707655766028 4.29160547993e-05 0.0015574588034 -2.1817256385e-15 0.0015574588033)
(0.00159562517019 0.000728053377402 3.96163239663e-05 0.00159562517024 -2.20994910785e-15 0.00159562517014)
(0.00163217643514 0.000747468232646 3.64132164967e-05 0.00163217643519 -2.18568310077e-15 0.00163217643509)
(0.00166681105604 0.000765779722177 3.33250452347e-05 0.00166681105609 -2.12175006867e-15 0.00166681105599)
(0.00169918174767 0.000782851175836 3.03649935091e-05 0.00169918174772 -2.0049155859e-15 0.00169918174762)
(0.00172888759169 0.00079852627969 2.7541783603e-05 0.00172888759174 -1.83967163871e-15 0.00172888759165)
(0.00175546226786 0.000812623542539 2.48603956161e-05 0.00175546226791 -1.63974946485e-15 0.00175546226781)
(0.00177835711171 0.000824928260945 2.23227885998e-05 0.00177835711175 -1.39979889644e-15 0.00177835711166)
(0.00179691724263 0.000835181151592 1.99285898663e-05 0.00179691724267 -1.12512205522e-15 0.00179691724259)
(0.00181034831605 0.000843062391932 1.76757304125e-05 0.00181034831609 -8.19514019541e-16 0.00181034831601)
(0.00181767045013 0.000848169154346 1.55610157232e-05 0.00181767045016 -4.88543175802e-16 0.00181767045009)
(0.00181765447017 0.000849983706312 1.35806298469e-05 0.00181765447021 -1.42625274076e-16 0.00181765447014)
(0.00180873375439 0.000847827594732 1.17305787661e-05 0.00180873375442 2.11713201324e-16 0.00180873375436)
(0.00178888282751 0.000840795084715 1.00070861683e-05 0.00178888282754 5.64014015983e-16 0.00178888282749)
(0.00175545235116 0.000827655654722 8.40696309075e-06 0.00175545235118 9.02466713692e-16 0.00175545235114)
(0.00170495246834 0.000806711255186 6.92798555346e-06 0.00170495246836 1.21410541916e-15 0.00170495246832)
(0.00163279214379 0.000775591956944 5.56933694537e-06 0.0016327921438 1.48149218563e-15 0.00163279214377)
(0.00153303822572 0.000730985922402 4.33221705703e-06 0.00153303822573 1.68284903255e-15 0.00153303822571)
(0.0013984256668 0.000668373563542 3.22080864158e-06 0.00139842566681 1.78931003322e-15 0.00139842566679)
(0.00122129284435 0.000582132014417 2.24393772522e-06 0.00122129284436 1.76487679927e-15 0.00122129284435)
(0.00099706369302 0.000467319142984 1.41778965211e-06 0.000997063693024 1.57123079534e-15 0.000997063693016)
(0.000732858767667 0.000326251361961 7.68632866244e-07 0.000732858767669 1.19589945647e-15 0.000732858767665)
(0.000460064523746 0.000180700273137 3.27224798771e-07 0.000460064523747 7.11984104633e-16 0.000460064523745)
(0.00023248983697 7.06289741466e-05 9.69295409699e-08 0.00023248983697 2.95692306903e-16 0.00023248983697)
(8.91046660967e-05 1.72066794096e-05 1.73429886243e-08 8.91046660967e-05 7.58548701011e-17 8.91046660966e-05)
(2.35072146765e-05 2.22258276694e-06 1.53371460447e-09 2.35072146765e-05 1.02455099264e-17 2.35072146765e-05)
(4.11962546703e-06 1.31398095033e-07 5.26000002861e-11 4.11962546703e-06 6.29873028146e-19 4.11962546703e-06)
(7.27266878613e-06 4.00108296371e-08 5.20861050546e-12 7.27266878613e-06 1.98577656393e-19 7.27266878613e-06)
(0.0006779368595 2.51589482935e-05 0.000118972386054 0.000677936859396 -4.61909352162e-17 0.000677936859604)
(0.00069096569532 7.42449811824e-05 0.000119653238453 0.000690965695218 -7.15048884781e-17 0.000690965695422)
(0.000714634420553 0.000120830572317 0.000120828126393 0.000714634420455 -7.5119127592e-18 0.000714634420652)
(0.0007464850063 0.000164891509798 0.000122273744736 0.000746485006207 8.35155384598e-17 0.000746485006393)
(0.000784268289027 0.000206459163546 0.000123766785134 0.000784268288941 2.01575697393e-16 0.000784268289112)
(0.000826091570607 0.000245626440548 0.000125104925238 0.000826091570529 2.97085802064e-16 0.000826091570684)
(0.000870459166733 0.000282540272669 0.000126116474823 0.000870459166665 3.66355604705e-16 0.000870459166801)
(0.00091624787596 0.000317386763414 0.000126663635806 0.000916247875902 4.16547111297e-16 0.000916247876018)
(0.00096265265238 0.000350374895781 0.00012664280909 0.000962652652332 3.80259587767e-16 0.000962652652428)
(0.00100912439184 0.000381721836534 0.000125983646844 0.0010091243918 2.44193567517e-16 0.00100912439188)
(0.00105531082821 0.000411640800464 0.000124647430666 0.00105531082819 4.59909846203e-17 0.00105531082824)
(0.00110100488613 0.000440331526085 0.000122624846307 0.00110100488611 -2.11687148894e-16 0.00110100488614)
(0.00114610145513 0.000467973146144 0.000119933092067 0.00114610145512 -5.38828470919e-16 0.00114610145513)
(0.00119056210094 0.000494719201587 0.000116612303491 0.00119056210094 -8.82897588403e-16 0.00119056210094)
(0.00123438675545 0.00052069455925 0.000112721382664 0.00123438675546 -1.25240990184e-15 0.00123438675544)
(0.00127759137728 0.000545993993888 0.000108333420201 0.0012775913773 -1.63955071659e-15 0.00127759137726)
(0.00132019067089 0.000570682178779 0.000103530964849 0.00132019067091 -2.01857729517e-15 0.00132019067086)
(0.00136218506744 0.000594794802879 9.84014187496e-05 0.00136218506747 -2.38099412605e-15 0.00136218506741)
(0.0014035512583 0.000618340510097 9.30328161629e-05 0.00140355125834 -2.7078331982e-15 0.00140355125826)
(0.00144423562303 0.000641303346529 8.75101941144e-05 0.00144423562307 -2.99482058382e-15 0.00144423562299)
(0.001484149914 0.000663645401263 8.19126916381e-05 0.00148414991404 -3.22833929131e-15 0.00148414991396)
(0.00152316856077 0.000685309343112 7.63114386878e-05 0.00152316856081 -3.4037143875e-15 0.00152316856072)
(0.00156112694827 0.000706220580525 7.07682254316e-05 0.00156112694831 -3.50982094765e-15 0.00156112694822)
(0.00159782000909 0.000726288797193 6.53348844369e-05 0.00159782000914 -3.54990135501e-15 0.00159782000905)
(0.00163300045041 0.000745408637839 6.00532801053e-05 0.00163300045046 -3.51723186304e-15 0.00163300045037)
(0.00166637590326 0.000763459326086 5.49557779807e-05 0.00166637590331 -3.40621970552e-15 0.00166637590321)
(0.00169760422285 0.000780302977466 5.00660623056e-05 0.00169760422289 -3.22213124344e-15 0.0016976042228)
(0.00172628606305 0.00079578131938 4.54001776706e-05 0.00172628606309 -2.96759502402e-15 0.001726286063)
(0.00175195366889 0.000809710429094 4.09676879305e-05 0.00175195366894 -2.64071309532e-15 0.00175195366885)
(0.00177405454111 0.000821872927698 3.67728658159e-05 0.00177405454115 -2.2484974013e-15 0.00177405454106)
(0.00179192817649 0.000832006798076 3.28158489048e-05 0.00179192817653 -1.80526801253e-15 0.00179192817645)
(0.00180477341091 0.000839789570648 2.90937194188e-05 0.00180477341094 -1.31503071066e-15 0.00180477341087)
(0.00181160290378 0.000844815967674 2.56014837588e-05 0.00181160290381 -7.86528174627e-16 0.00181160290375)
(0.00181117991281 0.000846566090017 2.23329441402e-05 0.00181117991284 -2.31897997435e-16 0.00181117991278)
(0.00180193067261 0.000844359680886 1.92814688641e-05 0.00180193067263 3.34674668955e-16 0.00180193067258)
(0.00178182358996 0.000837289662718 1.64406807656e-05 0.00178182358998 8.98933604209e-16 0.00178182358994)
(0.00174820503794 0.000824124800732 1.38050981056e-05 0.00174820503796 1.44160899661e-15 0.00174820503792)
(0.00169758396861 0.000803167311334 1.13707836581e-05 0.00169758396862 1.94166453006e-15 0.00169758396859)
(0.00162537350557 0.000772049302778 9.1360955747e-06 0.00162537350558 2.3714383807e-15 0.00162537350555)
(0.00152565425008 0.000727464628308 7.10270821627e-06 0.00152565425009 2.694146644e-15 0.00152565425007)
(0.00139119251141 0.000664907621749 5.27721752893e-06 0.00139119251141 2.86440549094e-15 0.0013911925114)
(0.00121438944915 0.00057878839951 3.67388259654e-06 0.00121438944916 2.82424356705e-15 0.00121438944915)
(0.00099077959136 0.00046423793832 2.31908568796e-06 0.000990779591363 2.51252446433e-15 0.000990779591357)
(0.0007276281586 0.000323697436104 1.2557330916e-06 0.000727628158602 1.91008113242e-15 0.000727628158598)
(0.000456358150868 0.000179003914297 5.33817251412e-07 0.000456358150869 1.13538897648e-15 0.000456358150867)
(0.000230442278375 6.9857921574e-05 1.57903024845e-07 0.000230442278375 4.70808138797e-16 0.000230442278374)
(8.828464407e-05 1.7000671785e-05 2.82254060165e-08 8.828464407e-05 1.20647234626e-16 8.828464407e-05)
(2.32887006316e-05 2.19500308578e-06 2.49510419664e-09 2.32887006316e-05 1.62876561953e-17 2.32887006316e-05)
(4.08410341969e-06 1.29844626598e-07 8.56220835305e-11 4.08410341969e-06 1.00184651613e-18 4.08410341969e-06)
(7.22559853707e-06 3.96240268453e-08 8.4968532994e-12 7.22559853707e-06 3.16505426474e-19 7.22559853707e-06)
(0.000709862822607 2.54562979306e-05 0.000162361851878 0.000709862822508 -7.960381292e-17 0.000709862822705)
(0.0007228632958 7.51262617819e-05 0.000163286032503 0.000722863295703 -1.43644552995e-16 0.000722863295897)
(0.000746483498067 0.000122275578004 0.00016488829177 0.000746483497974 -1.02408287525e-16 0.00074648349816)
(0.00077826812174 0.000166877875288 0.000166875433942 0.000778268121652 -1.2861872661e-17 0.000778268121828)
(0.000815958602807 0.000208954195065 0.000168952892708 0.000815958602726 1.20392687115e-16 0.000815958602887)
(0.00085763986458 0.000248580757042 0.000170851349086 0.000857639864507 2.36697972091e-16 0.000857639864653)
(0.000901784228267 0.000285884823108 0.000172339325823 0.000901784228203 3.23134161758e-16 0.000901784228331)
(0.000947231890667 0.000321033288966 0.000173227811747 0.000947231890612 3.62311683665e-16 0.000947231890721)
(0.000993141526747 0.000354219108219 0.000173371174114 0.000993141526702 3.05850471042e-16 0.000993141526791)
(0.00103893216784 0.000385648392384 0.000172666500882 0.00103893216781 1.54051011169e-16 0.00103893216787)
(0.00108422714621 0.00041552922019 0.000171052113896 0.00108422714619 -7.97072957669e-17 0.00108422714624)
(0.00112880446497 0.000444062340525 0.000168505324565 0.00112880446495 -3.9180450728e-16 0.00112880446498)
(0.00117255463302 0.000471433687053 0.000165039310496 0.00117255463301 -7.77378140158e-16 0.00117255463303)
(0.00121544556981 0.000497808584943 0.00016069903644 0.00121544556982 -1.21805820975e-15 0.00121544556981)
(0.00125749372227 0.00052332754558 0.00015555627477 0.00125749372228 -1.69287316169e-15 0.00125749372226)
(0.00129874050656 0.000548103548165 0.000149703921993 0.00129874050658 -2.17658743064e-15 0.00129874050654)
(0.00133923330659 0.000572220686947 0.000143249914112 0.00133923330661 -2.66201856213e-15 0.00133923330656)
(0.00137901039743 0.000595734022677 0.000136311096689 0.00137901039746 -3.12597531382e-15 0.0013790103974)
(0.00141808926046 0.00061867043246 0.000129007409344 0.00141808926049 -3.55378586889e-15 0.00141808926043)
(0.00145645780587 0.000641030209544 0.000121456697224 0.00145645780591 -3.92365965506e-15 0.00145645780584)
(0.00149406802105 0.000662789130626 0.000113770384453 0.00149406802109 -4.23480146486e-15 0.00149406802101)
(0.00153083153429 0.000683900694297 0.000106050149492 0.00153083153433 -4.47451681615e-15 0.00153083153424)
(0.00156661653505 0.000704298229172 9.83856445832e-05 0.00156661653509 -4.60601517248e-15 0.001566616535)
(0.00160124543465 0.000723896579485 9.08532156757e-05 0.00160124543469 -4.65716487281e-15 0.0016012454346)
(0.00163449259027 0.000742593088172 8.35155124958e-05 0.00163449259032 -4.62165339841e-15 0.00163449259023)
(0.00166608134718 0.000760267602571 7.6421835848e-05 0.00166608134722 -4.47186905765e-15 0.00166608134714)
(0.00169567956889 0.000776781214856 6.96090487172e-05 0.00169567956894 -4.22974617441e-15 0.00169567956885)
(0.00172289270495 0.000791973408631 6.31028786798e-05 0.001722892705 -3.89803383201e-15 0.00172289270491)
(0.00174725326159 0.000805657192556 5.69194537756e-05 0.00174725326163 -3.46741287796e-15 0.00174725326155)
(0.00176820525547 0.000817611640292 5.10669386502e-05 0.00176820525551 -2.95437954765e-15 0.00176820525543)
(0.00178508179167 0.000827570996703 4.55471675674e-05 0.00178508179171 -2.36683069288e-15 0.00178508179164)
(0.00179707324669 0.000835209094173 4.03572003227e-05 0.00179707324672 -1.7165726754e-15 0.00179707324665)
(0.00180318256945 0.000840117176905 3.54907556266e-05 0.00180318256948 -1.01844446869e-15 0.00180318256942)
(0.00180216284952 0.000841772230849 3.09395015439e-05 0.00180216284955 -2.84210527464e-16 0.00180216284949)
(0.00179243050048 0.000839491375823 2.66942046416e-05 0.00179243050051 4.66399506846e-16 0.00179243050045)
(0.00177194536021 0.000832365554333 2.27457600811e-05 0.00177194536024 1.21489490164e-15 0.00177194536019)
(0.0017380476748 0.00081916244391 1.90861474815e-05 0.00173804767482 1.93686599725e-15 0.00173804767478)
(0.00168724455533 0.000798184569382 1.57093885277e-05 0.00168724455535 2.60148059148e-15 0.00168724455532)
(0.00161495480299 0.000767066874929 1.26126361455e-05 0.001614954803 3.17188484544e-15 0.00161495480297)
(0.00151527826029 0.000722511256798 9.79762941567e-06 0.0015152782603 3.59992266361e-15 0.00151527826028)
(0.00138102539246 0.000660031805062 7.27295112004e-06 0.00138102539247 3.82427849e-15 0.00138102539245)
(0.00120468591548 0.00057408545292 5.05784948511e-06 0.00120468591549 3.76684992044e-15 0.00120468591547)
(0.000981950105007 0.000459906691629 3.18840512967e-06 0.00098195010501 3.3469441147e-15 0.000981950105003)
(0.00072028555812 0.000320112200771 1.7234734668e-06 0.000720285558122 2.54001914719e-15 0.000720285558118)
(0.000451162302933 0.00017662771722 7.31143761746e-07 0.000451162302934 1.50648314521e-15 0.000451162302933)
(0.000227575711689 6.87804878154e-05 2.15841218067e-07 0.000227575711689 6.23362749047e-16 0.000227575711688)
(8.71375181733e-05 1.67133270534e-05 3.8529569019e-08 8.71375181734e-05 1.59511471494e-16 8.71375181733e-05)
(2.29830903177e-05 2.15656568246e-06 3.40408428048e-09 2.29830903177e-05 2.15227513732e-17 2.29830903177e-05)
(4.03438705781e-06 1.27678322263e-07 1.16912286768e-10 4.03438705781e-06 1.32509290696e-18 4.03438705781e-06)
(7.1594955986e-06 3.90829146217e-08 1.16373324433e-11 7.1594955986e-06 4.19964541956e-19 7.1594955986e-06)
(0.000747762992227 2.57589271586e-05 0.000203316850177 0.000747762992136 -1.2857564853e-16 0.000747762992318)
(0.000760718997467 7.60279116543e-05 0.000204461000639 0.000760718997377 -2.44786741674e-16 0.000760718997556)
(0.000784265330607 0.000123767968629 0.000206455350793 0.000784265330521 -2.16520252933e-16 0.000784265330692)
(0.000815957130987 0.000168954506774 0.000208951268568 0.000815957130906 -1.37111053897e-16 0.000815957131067)
(0.00085353225866 0.00021159863715 0.000211596659137 0.000853532258585 -3.00819259569e-18 0.000853532258735)
(0.000895055740453 0.000251757306308 0.000214066156182 0.000895055740386 1.22700498667e-16 0.00089505574052)
(0.00093896676818 0.000289533340388 0.000216075873582 0.000938966768121 2.18342684142e-16 0.000938966768239)
(0.00098406463912 0.000325068349081 0.000217389310866 0.00098406463907 2.57628140296e-16 0.00098406463917)
(0.00102946507608 0.000358532664416 0.000217819115801 0.00102946507604 1.95209472785e-16 0.00102946507612)
(0.00107454707579 0.0003901149072 0.000217227118231 0.00107454707576 4.32506702478e-17 0.00107454707582)
(0.00111890075517 0.000420012275142 0.000215523476986 0.00111890075515 -2.15531008864e-16 0.0011189007552)
(0.00116228052336 0.000448421874625 0.00021266499845 0.00116228052335 -5.57187493435e-16 0.00116228052337)
(0.00120456467666 0.000475533156602 0.000208652433103 0.00120456467665 -9.5847589615e-16 0.00120456467667)
(0.00124572109734 0.000501521470803 0.000203526582159 0.00124572109734 -1.43379631099e-15 0.00124572109734)
(0.00128577828205 0.000526542769271 0.000197363195833 0.00128577828206 -1.99201884452e-15 0.00128577828204)
(0.00132480091156 0.000550729502776 0.000190266813266 0.00132480091158 -2.55624839498e-15 0.00132480091154)
(0.00136286931709 0.000574187733128 0.00018236384279 0.00136286931712 -3.10801962595e-15 0.00136286931707)
(0.00140006236193 0.00059699544458 0.00017379527795 0.00140006236195 -3.65149687854e-15 0.0014000623619)
(0.00143644337929 0.00061920197551 0.00016470948474 0.00143644337932 -4.15334359365e-15 0.00143644337926)
(0.00147204886928 0.000640828421446 0.000155255476572 0.00147204886931 -4.59059727598e-15 0.00147204886925)
(0.00150687965956 0.000661868796126 0.000145577028623 0.0015068796596 -4.95537487648e-15 0.00150687965952)
(0.00154089418869 0.000682291682311 0.000135807884581 0.00154089418873 -5.23610843208e-15 0.00154089418865)
(0.00157400349092 0.000702042066245 0.000126068193662 0.00157400349096 -5.41183418603e-15 0.00157400349088)
(0.00160606736257 0.000721043028181 0.000116462203668 0.00160606736261 -5.48592165874e-15 0.00160606736253)
(0.00163689108122 0.000739196954117 0.000107077136428 0.00163689108126 -5.43705488383e-15 0.00163689108118)
(0.00166622193535 0.0007563859293 9.79830977732e-05 0.00166622193539 -5.27938354617e-15 0.00166622193531)
(0.00169374469669 0.000772470960946 8.92338278494e-05 0.00169374469673 -5.00442083185e-15 0.00169374469665)
(0.00171907501792 0.000787289643393 8.08680789624e-05 0.00171907501796 -4.60771331672e-15 0.00171907501788)
(0.00174174953672 0.000800651798888 7.29114113807e-05 0.00174174953676 -4.10354350883e-15 0.00174174953668)
(0.00176121117666 0.000812332482014 6.53782202967e-05 0.0017612111767 -3.50053322251e-15 0.00176121117662)
(0.00177678770262 0.000822061487903 5.82738390564e-05 0.00177678770265 -2.80285681779e-15 0.00177678770259)
(0.00178766094275 0.000829508100737 5.15966011843e-05 0.00178766094278 -2.02377810141e-15 0.00178766094272)
(0.00179282314487 0.000834259185233 4.53397814879e-05 0.0017928231449 -1.18438260692e-15 0.00179282314484)
(0.00179101560255 0.000835787732679 3.94933724555e-05 0.00179101560257 -3.00445334232e-16 0.00179101560252)
(0.00178064293043 0.00083340744486 3.4045684103e-05 0.00178064293046 6.06455081373e-16 0.00178064293041)
(0.00175965439241 0.000826206638413 2.89847861245e-05 0.00175965439243 1.51088016026e-15 0.00175965439239)
(0.00172538247501 0.000812951490198 2.42998434123e-05 0.00172538247503 2.38295520873e-15 0.001725382475)
(0.00167433175765 0.000791944802221 1.99824390527e-05 0.00167433175767 3.18661247122e-15 0.00167433175764)
(0.00160192789951 0.000760825021306 1.60280499753e-05 0.00160192789952 3.87529447073e-15 0.00160192789949)
(0.00150229469471 0.000716304184893 1.24379754138e-05 0.00150229469472 4.39156248946e-15 0.0015022946947)
(0.00136829802151 0.00065392142799 9.22227738606e-06 0.00136829802151 4.65947348949e-15 0.0013682980215)
(0.0011925389588 0.000568193052681 6.40470045373e-06 0.0011925389588 4.58325788321e-15 0.0011925389588)
(0.000970903215373 0.000454484378406 4.03052507555e-06 0.000970903215376 4.06520085891e-15 0.00097090321537)
(0.00071111005634 0.000315631850291 2.17390133615e-06 0.000711110056342 3.07786163692e-15 0.000711110056338)
(0.000444681118573 0.000173666822348 9.19817946793e-07 0.000444681118573 1.82034924694e-15 0.000444681118572)
(0.00022400633152 6.74422532911e-05 2.70857666623e-07 0.00022400633152 7.51191308322e-16 0.00022400633152)
(8.57106144107e-05 1.63572794453e-05 4.82680372868e-08 8.57106144107e-05 1.91867815321e-16 8.57106144106e-05)
(2.26030542894e-05 2.10898921689e-06 4.26149820361e-09 2.26030542894e-05 2.58702960705e-17 2.26030542894e-05)
(3.97250357001e-06 1.24994853784e-07 1.46514784129e-10 3.97250357001e-06 1.59460200468e-18 3.97250357001e-06)
(7.0768429804e-06 3.84097840645e-08 1.46398501772e-11 7.0768429804e-06 5.07394484986e-19 7.0768429804e-06)
(0.000789775577767 2.6023713209e-05 0.00024194958463 0.000789775577684 -1.51111111526e-16 0.000789775577849)
(0.00080265957214 7.68236711212e-05 0.000243283519987 0.000802659572059 -3.10433164613e-16 0.000802659572221)
(0.000826087377133 0.000125105480391 0.000245622221374 0.000826087377056 -3.15978326207e-16 0.000826087377211)
(0.00085763711188 0.000170852159383 0.000248577483447 0.000857637111807 -2.51818320053e-16 0.000857637111953)
(0.000895054433467 0.00021406720776 0.000251755049887 0.0008950544334 -1.2643631859e-16 0.000895054433534)
(0.00093639268282 0.000254787498261 0.000254786241027 0.00093639268276 -2.17984885396e-18 0.00093639268288)
(0.000980062146987 0.000293088049996 0.000257343948474 0.000980062146934 9.48239989689e-17 0.00098006214704)
(0.00102482146937 0.000329079898263 0.0002591496213 0.00102482146932 1.36510864823e-16 0.00102482146941)
(0.00106974016002 0.000362904225496 0.000259976025281 0.00106974015998 8.9656637817e-17 0.00106974016006)
(0.00111415109839 0.000394725035355 0.000259648278744 0.00111415109837 -5.7603600497e-17 0.00111415109842)
(0.00115760304127 0.000424721496198 0.000258044046108 0.00115760304125 -3.08539892728e-16 0.00115760304129)
(0.00119981737484 0.000453080409689 0.000255092925174 0.00119981737483 -6.60129257522e-16 0.00119981737485)
(0.0012406502429 0.000479988995594 0.000250774759159 0.0012406502429 -1.09535179157e-15 0.0012406502429)
(0.00128005979168 0.000505628131301 0.000245116602105 0.00128005979168 -1.60267645335e-15 0.00128005979168)
(0.00131807781869 0.000530166198771 0.000238188210007 0.0013180778187 -2.15834791969e-15 0.00131807781868)
(0.00135478510429 0.00055375370757 0.000230096115115 0.00135478510431 -2.75310217153e-15 0.00135478510428)
(0.00139028986639 0.000576518859902 0.000220976520186 0.00139028986641 -3.3559358932e-15 0.00139028986637)
(0.00142470896881 0.000598564185326 0.000210987392942 0.00142470896883 -3.94311628496e-15 0.00142470896878)
(0.00145815166665 0.000619964310571 0.000200300227148 0.00145815166668 -4.48990832375e-15 0.00145815166663)
(0.0014907057615 0.000640764846502 0.00018909196567 0.00149070576153 -4.9825928843e-15 0.00149070576147)