/*--------------------------------*- C++ -*----------------------------------*\
| =========                 |                                                 |
| \\      /  F ield         | OpenFOAM: The Open Source CFD Toolbox           |
|  \\    /   O peration     | Version:  3.0.1                                 |
|   \\  /    A nd           | Web:      www.OpenFOAM.org                      |
|    \\/     M anipulation  |                                                 |
\*---------------------------------------------------------------------------*/
FoamFile
{
    version     2.0;
    format      ascii;
    class       volVectorField;
    location    "50000";
    object      U;
}
// * * * * * * * * * * * * * * * * * * * * * * * * * * * * * * * * * * * * * //

dimensions      [0 1 -1 0 0 0 0];

internalField   nonuniform List<vector> 
2500
(
(0.638911500896 4.59191843496e-13 -4.59090557504e-13)
(0.638114179475 1.34521428829e-12 -4.48301943242e-13)
(0.636639129179 2.16042442507e-12 -4.28557588964e-13)
(0.634597441064 2.89638903813e-12 -4.01514975539e-13)
(0.632086016646 3.54842954508e-12 -3.69006572795e-13)
(0.629185161138 4.1137637859e-12 -3.32566879411e-13)
(0.625958853595 4.59414445614e-12 -2.92864094531e-13)
(0.622456500141 4.99305877028e-12 -2.51199820475e-13)
(0.618715210244 5.3138326415e-12 -2.0796457949e-13)
(0.614762047895 5.56197558218e-12 -1.64120105156e-13)
(0.61061601972 5.74269461551e-12 -1.20192472803e-13)
(0.606289734824 5.86196510082e-12 -7.63889745565e-14)
(0.601790748827 5.92502805159e-12 -3.33693821252e-14)
(0.597122631146 5.93808370674e-12 8.92378987242e-15)
(0.592285798119 5.906746241e-12 5.00899639671e-14)
(0.587278149544 5.83592263484e-12 9.00063326592e-14)
(0.582095539169 5.73079880046e-12 1.28508807803e-13)
(0.576732103153 5.59588318899e-12 1.65484894042e-13)
(0.571180465088 5.43559787205e-12 2.00863841505e-13)
(0.565431831781 5.25388075786e-12 2.34574656643e-13)
(0.559475990242 5.05433791528e-12 2.66555632819e-13)
(0.553301212844 4.84037898163e-12 2.96809976296e-13)
(0.546894073991 4.61502023118e-12 3.25257350994e-13)
(0.540239177595 4.38100091645e-12 3.51951968641e-13)
(0.533318789853 4.14075058619e-12 3.7676707466e-13)
(0.526112365882 3.89643374639e-12 3.99799254653e-13)
(0.518595951258 3.65008649165e-12 4.2096683995e-13)
(0.510741429736 3.40342618829e-12 4.4029338584e-13)
(0.50251557541 3.1580691193e-12 4.57702028322e-13)
(0.493878849797 2.91538221304e-12 4.73217361752e-13)
(0.484783859667 2.67661225972e-12 4.86768028632e-13)
(0.475173356341 2.44284820183e-12 4.9827108979e-13)
(0.464977606918 2.21506968904e-12 5.0766541309e-13)
(0.454110894857 1.99417601864e-12 5.14837033018e-13)
(0.442466801409 1.78092474274e-12 5.19647197458e-13)
(0.429911767259 1.57605419313e-12 5.21919979846e-13)
(0.416276223682 1.38024663644e-12 5.21418033589e-13)
(0.401342322148 1.1941337055e-12 5.17820147451e-13)
(0.384827072266 1.01836295339e-12 5.10720447367e-13)
(0.366359909124 8.53581926579e-13 4.99526522081e-13)
(0.345455712437 7.00540444893e-13 4.83468508646e-13)
(0.321492394475 5.6011242004e-13 4.61499697517e-13)
(0.293728146832 4.33277705186e-13 4.3230112083e-13)
(0.261457663341 3.21214774059e-13 3.94436156622e-13)
(0.224475165184 2.25205023236e-13 3.47032373641e-13)
(0.183752006117 1.46413038984e-13 2.90922255593e-13)
(0.141390712998 8.53517224965e-14 2.2895975535e-13)
(0.0993571319763 4.13912034269e-14 1.64304970888e-13)
(0.0585969435221 1.36112927724e-14 9.88416348958e-14)
(0.0193321149023 7.24676070222e-16 3.33498982908e-14)
(0.638114201937 4.48033472456e-13 -1.34515307532e-12)
(0.637315566535 1.31278701303e-12 -1.31319868592e-12)
(0.635837933778 2.10879749556e-12 -1.25520236491e-12)
(0.633792445674 2.82722924969e-12 -1.17619069608e-12)
(0.631276171463 3.46317208466e-12 -1.08091654366e-12)
(0.6283697237 4.01477783263e-12 -9.73799519992e-13)
(0.625137493411 4.48343846418e-12 -8.57361291497e-13)
(0.621629350071 4.87263473213e-12 -7.35119928008e-13)
(0.617882869091 5.1854874052e-12 -6.08871068739e-13)
(0.613925546016 5.42692826163e-12 -4.80697185159e-13)
(0.609776759378 5.60285863026e-12 -3.52017108279e-13)
(0.605449414796 5.71863564918e-12 -2.23966060696e-13)
(0.600951280705 5.77966127381e-12 -9.77409243655e-14)
(0.596286053261 5.79220490644e-12 2.61753520824e-14)
(0.591454191972 5.76130972706e-12 1.46727375704e-13)
(0.586453562735 5.69201380034e-12 2.63635748761e-13)
(0.581279917985 5.58927482141e-12 3.76364770387e-13)
(0.575927237059 5.45754934145e-12 4.84631199373e-13)
(0.570387944418 5.30114302429e-12 5.88201237387e-13)
(0.564653018989 5.1238149983e-12 6.86862398726e-13)
(0.558712004226 4.92918802407e-12 7.80509597209e-13)
(0.552552925149 4.72046892154e-12 8.69025555363e-13)
(0.546162115212 4.50070688157e-12 9.52346117094e-13)
(0.539523952 4.272382153e-12 1.03046895205e-12)
(0.532620496162 4.03801220137e-12 1.10328383781e-12)
(0.525431022214 3.79980520066e-12 1.17075253508e-12)
(0.51793142246 3.5595700925e-12 1.23288466744e-12)
(0.510093455589 3.31899933961e-12 1.28950005447e-12)
(0.501883798534 3.07974262656e-12 1.34059090084e-12)
(0.493262842426 2.84320378461e-12 1.38605515823e-12)
(0.484183148752 2.61029605691e-12 1.42573969674e-12)
(0.474587446802 2.38225259871e-12 1.45947635166e-12)
(0.464406003149 2.1600763481e-12 1.48699822615e-12)
(0.453553120961 1.94455993513e-12 1.5079970255e-12)
(0.441922421111 1.73649988582e-12 1.52207796557e-12)
(0.429380405229 1.53663107215e-12 1.52869165559e-12)
(0.415757591431 1.34557670275e-12 1.52715806083e-12)
(0.400836254605 1.16405420502e-12 1.51653874668e-12)
(0.384333587453 9.92628383208e-13 1.49559411156e-12)
(0.365879317493 8.31880944688e-13 1.46263696538e-12)
(0.34498883451 6.82628652287e-13 1.41538845139e-12)
(0.321041015265 5.45692603383e-13 1.3508033021e-12)
(0.293295957288 4.22020045209e-13 1.26501702852e-12)
(0.261051962155 3.12775234017e-13 1.15388268179e-12)
(0.224108628796 2.19242229008e-13 1.0148743897e-12)
(0.183440938419 1.4250598706e-13 8.50497601153e-13)
(0.141147634531 8.30577287832e-14 6.69135312839e-13)
(0.0991860644502 4.0269305778e-14 4.80026939641e-13)
(0.0584964169243 1.32390537564e-14 2.88671293559e-13)
(0.0192991284734 7.03600335786e-16 9.73544739421e-14)
(0.636639186473 4.2820759817e-13 -2.16090475748e-12)
(0.635837968775 1.2546929306e-12 -2.10916157596e-12)
(0.63435528492 2.01542345916e-12 -2.01573270981e-12)
(0.63230239244 2.70201063281e-12 -1.88885038601e-12)
(0.629776675713 3.30944366748e-12 -1.7357779799e-12)
(0.626859306883 3.83622983186e-12 -1.56322794063e-12)
(0.623615424097 4.28344051605e-12 -1.37615274353e-12)
(0.620095740557 4.65419409933e-12 -1.179488771e-12)
(0.616338686977 4.95203966114e-12 -9.76798879126e-13)
(0.612372560144 5.18181907729e-12 -7.70891037516e-13)
(0.608217439878 5.34894937144e-12 -5.64060191272e-13)
(0.603886803445 5.45867383405e-12 -3.58507340781e-13)
(0.599388844331 5.51634736309e-12 -1.55692824631e-13)
(0.594727530445 5.52744338297e-12 4.30832870464e-14)
(0.589903441601 5.49715267197e-12 2.36551276991e-13)
(0.584914421658 5.43045108086e-12 4.24082920201e-13)
(0.579756073742 5.33185579072e-12 6.04900957119e-13)
(0.57442212023 5.20577914191e-12 7.78583249001e-13)
(0.568904643602 5.05621070618e-12 9.44688770359e-13)
(0.563194219796 4.88683049526e-12 1.1029505757e-12)
(0.557279952105 4.70099325785e-12 1.25317022211e-12)
(0.551149410531 4.50181414864e-12 1.39517727315e-12)
(0.544788478371 4.29226409428e-12 1.52889792297e-12)
(0.538181104342 4.07467205522e-12 1.65418587964e-12)
(0.531308954306 3.85117726266e-12 1.7710671166e-12)
(0.524150951219 3.62413654316e-12 1.87938441033e-12)
(0.516682684798 3.3950385094e-12 1.97909952013e-12)
(0.508875662917 3.16553642456e-12 2.07007427275e-12)
(0.500696363861 2.93749749e-12 2.15221874605e-12)
(0.492105030875 2.71190628496e-12 2.22526984919e-12)
(0.483054125758 2.48993305738e-12 2.28904723569e-12)
(0.473486323171 2.27253003817e-12 2.34324976482e-12)
(0.46333187704 2.06056448049e-12 2.38749460456e-12)
(0.452505117558 1.85502593962e-12 2.42126340825e-12)
(0.440899731682 1.65652918917e-12 2.44391191097e-12)
(0.428382328752 1.46581378729e-12 2.45458187217e-12)
(0.414783584727 1.28356076412e-12 2.45214029417e-12)
(0.399886002448 1.11031315848e-12 2.43510264004e-12)
(0.38340711606 9.4671020655e-13 2.4014393404e-12)
(0.364977201438 7.93336977075e-13 2.34844791285e-12)
(0.344112607503 6.50932065605e-13 2.27246796202e-12)
(0.320194026419 5.20272506592e-13 2.16859867388e-12)
(0.292485142037 4.02330862906e-13 2.03065113865e-12)
(0.260291033654 2.98194560514e-13 1.85198577852e-12)
(0.223421367771 2.08998237957e-13 1.62862510464e-12)
(0.182857849554 1.35861028982e-13 1.36466440067e-12)
(0.140692067003 7.91999157898e-14 1.0735742021e-12)
(0.098865474451 3.84088893996e-14 7.70127008727e-13)
(0.0583080260088 1.26309250157e-14 4.63105850638e-13)
(0.0192373105603 6.7329418256e-16 1.56174558775e-13)
(0.634597534129 4.01360706479e-13 -2.89701536543e-12)
(0.633792516949 1.17594329287e-12 -2.82761128143e-12)
(0.632302429241 1.88870439436e-12 -2.70233532279e-12)
(0.630238708873 2.53178106742e-12 -2.53189256373e-12)
(0.627699167359 3.10041107371e-12 -2.32643876443e-12)
(0.624765719024 3.59323707749e-12 -2.09465352415e-12)
(0.621504495139 4.01117696998e-12 -1.84360551866e-12)
(0.617967341071 4.35708991986e-12 -1.57956553786e-12)
(0.614193850609 4.63455950295e-12 -1.30736642884e-12)
(0.610213428811 4.84825474474e-12 -1.03092918124e-12)
(0.606047147144 5.00310623787e-12 -7.53545174244e-13)
(0.601709315979 5.10409862337e-12 -4.77924438795e-13)
(0.597208777143 5.15647242861e-12 -2.06206656698e-13)
(0.592549948619 5.16536916786e-12 5.9895909212e-14)
(0.587733659353 5.13572804508e-12 3.18988606574e-13)
(0.58275780821 5.07220193087e-12 5.69965641322e-13)
(0.577617874273 4.97908684833e-12 8.11915768242e-13)
(0.57230729875 4.86045346428e-12 1.04427497522e-12)
(0.566817752918 4.72003750761e-12 1.26645920186e-12)
(0.561139301799 4.56128965258e-12 1.47820182049e-12)
(0.555260469623 4.38734639607e-12 1.67910288337e-12)
(0.549168210056 4.20110374086e-12 1.86916121555e-12)
(0.542847781301 4.00515533266e-12 2.04811117858e-12)
(0.536282523118 3.80183932379e-12 2.2157635995e-12)
(0.529453528985 3.5932740816e-12 2.37220132625e-12)
(0.522339201672 3.38130482572e-12 2.51724882023e-12)
(0.514914673776 3.16760651384e-12 2.65071999042e-12)
(0.507151065629 2.95368473281e-12 2.77258952773e-12)
(0.499014540325 2.74082944937e-12 2.88261716369e-12)
(0.490465098092 2.53029484902e-12 2.98053267994e-12)
(0.481455027605 2.32313131018e-12 3.06605749747e-12)
(0.471926896802 2.12028056884e-12 3.13874644591e-12)
(0.461810915516 1.92257739337e-12 3.19811309405e-12)
(0.45102142949 1.73075237064e-12 3.24346480355e-12)
(0.439452200064 1.54556331757e-12 3.27391533919e-12)
(0.426969973351 1.36760282516e-12 3.28832527557e-12)
(0.413405636345 1.19750093355e-12 3.28514617598e-12)
(0.398542005317 1.03582542661e-12 3.26237091567e-12)
(0.382097091619 8.83068398585e-13 3.21728801527e-12)
(0.363701944662 7.39903470784e-13 3.14625807582e-12)
(0.342874272711 6.0700226895e-13 3.04435812632e-12)
(0.318997345161 4.85058622314e-13 2.90501324396e-12)
(0.291339934953 3.74999530992e-13 2.71994895129e-12)
(0.259216715033 2.77855665422e-13 2.48028882524e-12)
(0.222451523241 1.94725522151e-13 2.18083653491e-12)
(0.182035380831 1.26573764527e-13 1.82720134036e-12)
(0.140049642464 7.37858112462e-14 1.43743003253e-12)
(0.0984134292981 3.57830525612e-14 1.031189198e-12)
(0.0580423903976 1.17697006346e-14 6.20140281449e-13)
(0.0191501458476 6.26258514108e-16 2.09155931276e-13)
(0.632086137471 3.6888331603e-13 -3.54883592556e-12)
(0.631276271448 1.08069162811e-12 -3.46348415233e-12)
(0.629776742486 1.73573443751e-12 -3.30972563535e-12)
(0.627699198205 2.32647134931e-12 -3.10050952981e-12)
(0.62514192608 2.84822249233e-12 -2.84826726342e-12)
(0.622187677741 3.30001270326e-12 -2.56365032657e-12)
(0.618903724286 3.68248871401e-12 -2.25546323944e-12)
(0.615343233979 3.9983176979e-12 -1.93133573632e-12)
(0.61154718587 4.25104573873e-12 -1.59726321185e-12)
(0.607546333875 4.44490526624e-12 -1.25813715632e-12)
(0.60336298824 4.5845843719e-12 -9.18155173707e-13)
(0.59901253568 4.67480879266e-12 -5.80367637315e-13)
(0.594504696418 4.72046218945e-12 -2.47726791404e-13)
(0.589844546962 4.72638119631e-12 7.77431158642e-14)
(0.585033344677 4.69711926081e-12 3.94385954902e-13)
(0.580069187068 4.63693621153e-12 7.01219183492e-13)
(0.574947532085 4.54994359417e-12 9.96758090909e-13)
(0.569661598758 4.43987972811e-12 1.28054460529e-12)
(0.564202661189 4.31021532244e-12 1.55181175408e-12)
(0.558560243892 4.16395853841e-12 1.81030487446e-12)
(0.552722222448 4.00419394276e-12 2.05551458031e-12)
(0.54667483024 3.83352270331e-12 2.28743945968e-12)
(0.540402569229 3.65388332273e-12 2.50576479009e-12)
(0.533888019901 3.46791919279e-12 2.71047548598e-12)
(0.527111542154 3.27737684543e-12 2.90142464699e-12)
(0.520050854414 3.08363410931e-12 3.07845766077e-12)
(0.512680472121 2.88841256477e-12 3.24155615565e-12)
(0.504970978037 2.69310998447e-12 3.39043977527e-12)
(0.49688808461 2.49890331615e-12 3.52491586518e-12)
(0.488391431392 2.30685545789e-12 3.64467142424e-12)
(0.479433036069 2.11790783663e-12 3.74935981755e-12)
(0.469955282786 1.93287570045e-12 3.83839895671e-12)
(0.459888281308 1.75256316172e-12 3.91116725449e-12)
(0.449146358013 1.577670412e-12 3.96680882092e-12)
(0.437623334885 1.40881247279e-12 4.00422870916e-12)
(0.425186103202 1.2465062388e-12 4.02198981833e-12)
(0.411665794497 1.0913185724e-12 4.0182205276e-12)
(0.396845604326 9.43788658937e-13 3.99042697976e-12)
(0.380444135659 8.04452402056e-13 3.93528288653e-12)
(0.362093409872 6.73887357994e-13 3.84832230142e-12)
(0.341312854825 5.52669546005e-13 3.72347748326e-12)
(0.317489008233 4.41503939158e-13 3.55271149135e-12)
(0.289897093654 3.41186720316e-13 3.32589986911e-12)
(0.257863904106 2.52694695518e-13 3.03228130295e-12)
(0.221231048638 1.77067121231e-13 2.665661482e-12)
(0.18100098358 1.15090360916e-13 2.23310287811e-12)
(0.139241964098 6.71012182252e-14 1.75668889069e-12)
(0.0978451668737 3.25594297767e-14 1.26027819137e-12)
(0.0577084674954 1.07177435278e-14 7.57971850152e-13)
(0.0190405735816 5.73152611115e-16 2.55671130692e-13)
(0.629185296559 3.32493460229e-13 -4.11409579829e-12)
(0.628369839685 9.73657560471e-13 -4.01514288697e-12)
(0.626859391707 1.5632791192e-12 -3.83651033126e-12)
(0.624765769786 2.09475895275e-12 -3.59332765896e-12)
(0.622187698735 2.56363102052e-12 -3.30007935238e-12)
(0.619208762068 2.96902752499e-12 -2.9690680092e-12)
(0.615897412918 3.31146109551e-12 -2.61073125499e-12)
(0.612308233798 3.59333983225e-12 -2.23385952329e-12)
(0.608483723979 3.81804155833e-12 -1.84561789322e-12)
(0.604456156489 3.98933445041e-12 -1.45180866254e-12)
(0.600249277084 4.11173228382e-12 -1.05719082777e-12)
(0.595879763357 4.18932977135e-12 -6.65566095645e-13)
(0.591358437637 4.22656122045e-12 -2.8000178119e-13)
(0.586691259121 4.22828889388e-12 9.70243949663e-14)
(0.581880129228 4.1992043e-12 4.6363003921e-13)
(0.576923542175 4.14248770622e-12 8.18251031486e-13)
(0.571817106642 4.06183315304e-12 1.15989922809e-12)
(0.566553957403 3.96102427264e-12 1.48759206739e-12)
(0.561125069296 3.84298032243e-12 1.80082926644e-12)
(0.555519480344 3.71044088556e-12 2.09903095789e-12)
(0.549724426351 3.56613103659e-12 2.38205579934e-12)
(0.54372538565 3.41242896802e-12 2.64949257157e-12)
(0.537506029653 3.25121918536e-12 2.90139494926e-12)
(0.531048071993 3.08462660146e-12 3.13751434652e-12)
(0.524331005895 2.91398788828e-12 3.35777576384e-12)
(0.517331715383 2.74111848811e-12 3.56205386809e-12)
(0.510023940284 2.56715114769e-12 3.75026157533e-12)
(0.502377566919 2.39307185647e-12 3.92216090451e-12)
(0.494357704737 2.22010834107e-12 4.07750227198e-12)
(0.485923492371 2.04928107797e-12 4.2158971046e-12)
(0.477026552582 1.88119338191e-12 4.3368602989e-12)
(0.467608980959 1.71656134825e-12 4.43985588152e-12)
(0.457600703386 1.55624002601e-12 4.52407822304e-12)
(0.446915965038 1.40069626715e-12 4.58853736666e-12)
(0.435448609448 1.25053792374e-12 4.63193309283e-12)
(0.423065657927 1.10624085968e-12 4.65259054223e-12)
(0.409598498215 9.68318123548e-13 4.64832425584e-12)
(0.394830750239 8.37207085127e-13 4.61621567386e-12)
(0.378481701893 7.13400589375e-13 4.55240499881e-12)
(0.360184520666 5.97387394866e-13 4.45167312138e-12)
(0.33946068068 4.89698642699e-13 4.30698387339e-12)
(0.315700622134 3.91005603459e-13 4.10901353984e-12)
(0.288187267477 3.02017611364e-13 3.84605485199e-12)
(0.256261817207 2.23615093217e-13 3.50577169868e-12)
(0.219786814253 1.56637330171e-13 3.08121619598e-12)
(0.179777828549 1.01791588713e-13 2.58084099343e-12)
(0.138287303018 5.93603364688e-14 2.03018303039e-12)
(0.0971735826499 2.88055212322e-14 1.45657472958e-12)
(0.057313838366 9.48146413441e-15 8.76115495606e-13)
(0.0189110813708 5.0588089842e-16 2.95561932227e-13)
(0.625958988728 2.92723839477e-13 -4.59431446213e-12)
(0.625137610909 8.57185877431e-13 -4.48361560383e-12)
(0.6236155132 1.37634223933e-12 -4.28352633546e-12)
(0.621504552978 1.84382338102e-12 -4.01125804653e-12)
(0.618903754498 2.25546345684e-12 -3.6825658035e-12)
(0.615897423252 2.61071845391e-12 -3.31150620968e-12)
(0.612555133229 2.90982747511e-12 -2.90985247423e-12)
(0.608932875927 3.15492040518e-12 -2.48750775046e-12)
(0.605074720049 3.34905571819e-12 -2.05260709052e-12)
(0.601014555911 3.49575808999e-12 -1.61179542427e-12)
(0.596777705003 3.59901087115e-12 -1.17036506079e-12)
(0.592382310798 3.6628130732e-12 -7.32773670218e-13)
(0.587840500019 3.69124424316e-12 -3.02188681002e-13)
(0.583159336052 3.6884990718e-12 1.18606407879e-13)
(0.578341596254 3.65838309039e-12 5.27436112929e-13)
(0.573386404124 3.60458190904e-12 9.22343317881e-13)
(0.568289742007 3.5303905824e-12 1.30253992762e-12)
(0.563044863312 3.43888750667e-12 1.66687985546e-12)
(0.557642616639 3.33282347461e-12 2.0148921421e-12)
(0.552071688315 3.21469226501e-12 2.34595773039e-12)
(0.546318764761 3.08679139901e-12 2.66009820966e-12)
(0.540368611927 2.9512732279e-12 2.9567574454e-12)
(0.534204065404 2.8096190138e-12 3.23612267057e-12)
(0.527805921659 2.66360310303e-12 3.49782705883e-12)
(0.521152717519 2.51472785049e-12 3.74210635362e-12)
(0.514220381158 2.36405227197e-12 3.96866706427e-12)
(0.506981732566 2.21276866728e-12 4.17736636162e-12)
(0.499405803998 2.06177711942e-12 4.36804514541e-12)
(0.491456939864 1.91192394181e-12 4.54035750731e-12)
(0.483093619476 1.7638589321e-12 4.69403093403e-12)
(0.474266922604 1.61852640671e-12 4.82836505072e-12)
(0.464918523783 1.47645891885e-12 4.94280782611e-12)
(0.454978051866 1.33807964602e-12 5.0364299101e-12)
(0.444359579649 1.2039517619e-12 5.10812052346e-12)
(0.432956904926 1.07450136699e-12 5.15640604746e-12)
(0.420637137531 9.50168895157e-13 5.179401737e-12)
(0.407231908743 8.31315558723e-13 5.17463084123e-12)
(0.392525285359 7.18376621864e-13 5.13882099769e-12)
(0.376237311719 6.11816712818e-13 5.06764298381e-12)
(0.35800245243 5.11986823472e-13 4.95521747785e-12)
(0.33734452527 4.1938787062e-13 4.79370051063e-12)
(0.31365846053 3.34582749379e-13 4.57267165747e-12)
(0.286236036256 2.58208613996e-13 4.27913930444e-12)
(0.25443494857 1.91000756638e-13 3.89948493839e-12)
(0.218141454136 1.33708610629e-13 3.42629329167e-12)
(0.178385506708 8.68918094885e-14 2.86931822186e-12)
(0.137201136892 5.06737567284e-14 2.25698057573e-12)
(0.0964096065522 2.46004570969e-14 1.61935982233e-12)
(0.0568649289729 8.10265642502e-15 9.74107730963e-13)
(0.0187637777789 4.34643140444e-16 3.2865657718e-13)
(0.622456620787 2.51116275358e-13 -4.9931012858e-12)
(0.621629455197 7.35039598306e-13 -4.87246738662e-12)
(0.620095820627 1.17961176885e-12 -4.6539311652e-12)
(0.617967393454 1.57967259861e-12 -4.35713163825e-12)
(0.615343261792 1.93134410264e-12 -3.99835657771e-12)
(0.612308243848 2.23386470803e-12 -3.59335711145e-12)
(0.608932876676 2.48749835877e-12 -3.15494678311e-12)
(0.605274465247 2.69403140778e-12 -2.6940447258e-12)
(0.601378615472 2.8561589643e-12 -2.21960008063e-12)
(0.597280862003 2.97700073737e-12 -1.73898485535e-12)
(0.593008182489 3.06013086182e-12 -1.25809218401e-12)
(0.588580313789 3.1091536967e-12 -7.81709570913e-13)
(0.584010855157 3.12779390551e-12 -3.13563383888e-13)
(0.579308176059 3.11975097329e-12 1.4336100026e-13)
(0.574476157694 3.08851196799e-12 5.86730090877e-13)
(0.569514797847 3.03732187225e-12 1.01481631691e-12)
(0.564420704473 2.96921385022e-12 1.42629934631e-12)
(0.559187497321 2.88693621575e-12 1.82028171931e-12)
(0.553806130568 2.79280056542e-12 2.19612901459e-12)
(0.548265143393 2.68922670893e-12 2.55347996183e-12)
(0.542550839987 2.57789915118e-12 2.89209753706e-12)
(0.536647395659 2.46069262039e-12 3.21185663771e-12)
(0.530536881444 2.33898986867e-12 3.51266785881e-12)
(0.524199195759 2.21449097183e-12 3.79449812615e-12)
(0.517611887853 2.08817557202e-12 4.05734515708e-12)
(0.510749853653 1.96070167541e-12 4.30113433676e-12)
(0.503584879389 1.8333046651e-12 4.52571756755e-12)
(0.496085001195 1.70641501524e-12 4.73091429764e-12)
(0.48821363845 1.58107891478e-12 4.91642338555e-12)
(0.479928443267 1.45759567326e-12 5.08180687237e-12)
(0.471179785872 1.33634807606e-12 5.22655660525e-12)
(0.461908762371 1.21810529352e-12 5.34983475996e-12)
(0.452044562699 1.1031477485e-12 5.45072335934e-12)
(0.44150096568 9.91833511099e-13 5.52795165995e-12)
(0.430171625694 8.84529412515e-13 5.57993439395e-12)
(0.41792367048 7.81573753891e-13 5.60456595205e-12)
(0.404588935055 6.83254741065e-13 5.59915007102e-12)
(0.389951930594 5.89958348943e-13 5.56011560379e-12)
(0.373733506052 5.01925867918e-13 5.48272161629e-12)
(0.355569550949 4.19491721925e-13 5.36057606416e-12)
(0.334986497477 3.43163783033e-13 5.18513318653e-12)
(0.311384314632 2.73406807927e-13 4.94509741245e-12)
(0.284064718009 2.10724087342e-13 4.6264294511e-12)
(0.252403819605 1.5564827811e-13 4.21458427113e-12)
(0.21631403111 1.08827695346e-13 3.70192574232e-12)
(0.176840582469 7.06793040396e-14 3.09941058987e-12)
(0.135996576561 4.12173862726e-14 2.43777307825e-12)
(0.0955625017796 2.00085350576e-14 1.74913606451e-12)
(0.0563671856269 6.59217241447e-15 1.05226097306e-12)
(0.0186004498888 3.53375506645e-16 3.5506733701e-13)
(0.618715304291 2.07972197564e-13 -5.31383528007e-12)
(0.617882949945 6.0891427164e-13 -5.18545439732e-12)
(0.616338746522 9.76808060616e-13 -4.95192064451e-12)
(0.614193886624 1.30733599213e-12 -4.63461845468e-12)
(0.611547201087 1.59727627204e-12 -4.25105392049e-12)
(0.608483724356 1.84561081968e-12 -3.81801220019e-12)
(0.605074713019 2.0525854594e-12 -3.34908461717e-12)
(0.601378608578 2.21958772057e-12 -2.85619374114e-12)
(0.597442446678 2.34889334193e-12 -2.34891920607e-12)
(0.593303365281 2.44321298973e-12 -1.83536409411e-12)
(0.588990018319 2.50568554911e-12 -1.32189193137e-12)
(0.584523811559 2.53949426911e-12 -8.1368921813e-13)
(0.579919942069 2.54789582789e-12 -3.14782826235e-13)
(0.575188254733 2.53417131168e-12 1.71577803325e-13)
(0.570333941688 2.5013918173e-12 6.42876925428e-13)
(0.565358112501 2.45250784509e-12 1.09705856318e-12)
(0.560258259845 2.39011597841e-12 1.53325743536e-12)
(0.555028640203 2.31667545624e-12 1.95022793318e-12)
(0.549660583348 2.23431327945e-12 2.3475878945e-12)
(0.544142738476 2.14495370343e-12 2.72486717615e-12)
(0.538461259341 2.05021146044e-12 3.08180542828e-12)
(0.532599925482 1.95160762211e-12 3.41868894311e-12)
(0.526540191772 1.85008024157e-12 3.73518093467e-12)
(0.520261153886 1.74700332689e-12 4.03168515518e-12)
(0.513739412711 1.64333491114e-12 4.30795915643e-12)
(0.506948815924 1.53952116529e-12 4.56405729651e-12)
(0.499860049347 1.43637072958e-12 4.79993463748e-12)
(0.492440043375 1.33439191854e-12 5.01540066199e-12)
(0.484651149654 1.23396093957e-12 5.21020917541e-12)
(0.476450028351 1.1355060614e-12 5.38380070844e-12)
(0.46778616452 1.03939143577e-12 5.53575189812e-12)
(0.458599899754 9.45854093645e-13 5.66516265529e-12)
(0.448819817626 8.55223070421e-13 5.77102305842e-12)
(0.438359251678 7.67734148317e-13 5.85196731244e-12)
(0.427111583696 6.83579349349e-13 5.90628540054e-12)
(0.414943857292 6.02986918996e-13 5.93173866989e-12)
(0.401688041403 5.26226634673e-13 5.92541524596e-12)
(0.387129061206 4.53543793206e-13 5.88348679254e-12)
(0.370988592752 3.85141493975e-13 5.80086415512e-12)
(0.35290405394 3.21193430153e-13 5.67076422655e-12)
(0.332404736605 2.62120793726e-13 5.48409295145e-12)
(0.308896163372 2.08260461903e-13 5.22887330361e-12)
(0.281691007432 1.60060740409e-13 4.89028276432e-12)
(0.250185573711 1.17939140932e-13 4.45315182613e-12)
(0.21432056744 8.22829422075e-14 3.90987423635e-12)
(0.175157037421 5.33710886233e-14 3.27252593169e-12)
(0.134684709362 3.11017883391e-14 2.57359587087e-12)
(0.094640105542 1.50938545201e-14 1.84658325658e-12)
(0.0558252163433 4.97172778019e-15 1.11094183667e-12)
(0.0184226096818 2.6711004055e-16 3.74901378877e-13)
(0.614762105937 1.64062819342e-13 -5.56191886412e-12)
(0.61392559331 4.8070318227e-13 -5.42690568069e-12)
(0.61237259012 7.70921406291e-13 -5.18185338344e-12)
(0.610213439789 1.03092675722e-12 -4.84827077263e-12)
(0.607546328327 1.25820658879e-12 -4.44491651398e-12)
(0.604456139616 1.45178576792e-12 -3.98931777536e-12)
(0.601014534187 1.61172599431e-12 -3.49576903733e-12)
(0.597280841998 1.73897009601e-12 -2.97702717391e-12)
(0.593303352885 1.83536084e-12 -2.44325621827e-12)
(0.589120703313 1.90307004596e-12 -1.90308357837e-12)
(0.584763184707 1.94485264484e-12 -1.36338866203e-12)
(0.580253893616 1.96340529141e-12 -8.29743042476e-13)
(0.575609702371 1.96152691808e-12 -3.06474910868e-13)
(0.570842059498 1.94193050246e-12 2.02886531993e-13)
(0.565957642133 1.90706942033e-12 6.95777863283e-13)
(0.56095888589 1.86015116393e-12 1.17019238106e-12)
(0.55584441573 1.80331603753e-12 1.62498675259e-12)
(0.550609397261 1.73840894749e-12 2.05903691087e-12)
(0.545245822783 1.66737647384e-12 2.47187820563e-12)
(0.539742741102 1.59159963693e-12 2.86326213228e-12)
(0.53408643473 1.51295779506e-12 3.23306779829e-12)
(0.52826054283 1.43228757454e-12 3.58141383606e-12)
(0.52224612294 1.35055807192e-12 3.90835805497e-12)
(0.516021639308 1.26902079714e-12 4.21414841153e-12)
(0.50956286021 1.1876842321e-12 4.49881383376e-12)
(0.502842640977 1.10732183982e-12 4.76254689723e-12)
(0.495830562979 1.02853567465e-12 5.00523514675e-12)
(0.488492390966 9.51375299826e-13 5.22684562915e-12)
(0.480789300781 8.76166570292e-13 5.42702777357e-12)
(0.472676814813 8.03186725283e-13 5.60545341558e-12)
(0.464103361323 7.32502829474e-13 5.76144976564e-12)
(0.455008342338 6.64175676453e-13 5.89424511925e-12)
(0.445319548357 5.98407253736e-13 6.00271942551e-12)
(0.434949689737 5.35265481786e-13 6.08548577856e-12)
(0.423791715505 4.74931682949e-13 6.14068441909e-12)
(0.411712450268 4.17457543247e-13 6.16600259074e-12)
(0.398543894436 3.62930846182e-13 6.15829489452e-12)
(0.384071325795 3.11505777413e-13 6.11361906436e-12)
(0.368017241313 2.63294181641e-13 6.02657895111e-12)
(0.350020664314 2.18503329919e-13 5.89009418344e-12)
(0.32961396578 1.77403545555e-13 5.69465146678e-12)
(0.306208706525 1.40160967018e-13 5.4277851672e-12)
(0.279129485117 1.07076275437e-13 5.07417686862e-12)
(0.247794452395 7.84350324338e-14 4.61830877519e-12)
(0.212174471617 5.44450798047e-14 4.05284565261e-12)
(0.173346628922 3.5173121407e-14 3.39088463293e-12)
(0.133274877428 2.04502681297e-14 2.66614630184e-12)
(0.0936490243992 9.90891936776e-15 1.91286905682e-12)
(0.0552429055495 3.25862237821e-15 1.15081881781e-12)
(0.0182315316686 1.73628014842e-16 3.88369989546e-13)
(0.610616035181 1.20169423189e-13 -5.74262496239e-12)
(0.609776766565 3.51987808877e-13 -5.60271034002e-12)
(0.60821743383 5.64034811564e-13 -5.34893378593e-12)
(0.606047126817 7.53523628846e-13 -5.00304213959e-12)
(0.603362955948 9.18186551856e-13 -4.58458143467e-12)
(0.600249237373 1.05717262801e-12 -4.11170519974e-12)
(0.596777663455 1.17029895963e-12 -3.59896598062e-12)
(0.593008144753 1.25804680755e-12 -3.06010895066e-12)
(0.588989989444 1.32187867232e-12 -2.50572894109e-12)
(0.584763168779 1.36338854629e-12 -1.9448611108e-12)
(0.580359516396 1.38478139226e-12 -1.38480891593e-12)
(0.575803787963 1.38829970644e-12 -8.3154495323e-13)
(0.571114558378 1.37615603936e-12 -2.89614422617e-13)
(0.566304961923 1.35073165568e-12 2.37047896639e-13)
(0.561383293781 1.31427829158e-12 7.4598917036e-13)
(0.556353495445 1.26929528909e-12 1.23532197316e-12)
(0.551215545834 1.2175038873e-12 1.70321518894e-12)
(0.545965776826 1.16055612032e-12 2.14898902353e-12)
(0.540597127771 1.10032030785e-12 2.57204325004e-12)
(0.535099348867 1.03797918245e-12 2.97229304343e-12)
(0.529459158453 9.74740526139e-13 3.34978627385e-12)
(0.523660354179 9.11539851368e-13 3.70455732788e-12)
(0.517683872706 8.48935543866e-13 4.03705456623e-12)
(0.511507787019 7.87753989497e-13 4.34742156077e-12)
(0.505107224361 7.28512426683e-13 4.63586929037e-12)
(0.498454181238 6.71218539855e-13 4.9027913171e-12)
(0.491517204454 6.1622047283e-13 5.14810911633e-12)
(0.484260898325 5.63583088485e-13 5.37180688355e-12)
(0.476645207015 5.13312973229e-13 5.57371055246e-12)
(0.468624405969 4.65490644882e-13 5.75349180552e-12)
(0.460145715222 4.20040912966e-13 5.91043585352e-12)
(0.451147416579 3.76940965694e-13 6.04383774596e-12)
(0.441556311319 3.36154826737e-13 6.15253722756e-12)
(0.431284288308 2.9761350448e-13 6.23510515337e-12)
(0.420223675469 2.61318427649e-13 6.28963285713e-12)
(0.408240910785 2.27107330394e-13 6.31366496462e-12)
(0.395167889179 1.95146582758e-13 6.30401376306e-12)
(0.380790145615 1.65502858636e-13 6.25651610164e-12)
(0.364830959757 1.38015379457e-13 6.16564937419e-12)
(0.346931008089 1.12867478462e-13 6.02409655985e-12)
(0.326625933123 9.01281750878e-14 5.82205546917e-12)
(0.30333378968 6.99250866086e-14 5.54677695438e-12)
(0.276392024073 5.23707900764e-14 5.18266022442e-12)
(0.245242176556 3.76081567216e-14 4.71417361746e-12)
(0.209886881548 2.56535136733e-14 4.13443303762e-12)
(0.171419179697 1.63559726439e-14 3.45747776442e-12)
(0.131774903083 9.43265981514e-15 2.7177436982e-12)
(0.0925947925934 4.54477898289e-15 1.94963237825e-12)
(0.054623507059 1.48741278448e-15 1.17286236912e-12)