/*--------------------------------*- C++ -*----------------------------------*\
| =========                 |                                                 |
| \\      /  F ield         | OpenFOAM: The Open Source CFD Toolbox           |
|  \\    /   O peration     | Version:  3.0.1                                 |
|   \\  /    A nd           | Web:      www.OpenFOAM.org                      |
|    \\/     M anipulation  |                                                 |
\*---------------------------------------------------------------------------*/
FoamFile
{
    version     2.0;
    format      ascii;
    class       volVectorField;
    location    "50000";
    object      wallShearStress;
}
// * * * * * * * * * * * * * * * * * * * * * * * * * * * * * * * * * * * * * //

dimensions      [0 2 -2 0 0 0 0];

internalField   uniform (0 0 0);

boundaryField
{
    side_walls
    {
        type            calculated;
        value           nonuniform List<vector> 
100
(
(-0.00126624830115 -2.07614512681e-16 -2.18444464657e-15)
(-0.00126408769898 -2.01842346877e-16 -6.37678028869e-15)
(-0.00126003864237 -1.92672571444e-16 -1.02295312236e-14)
(-0.00125432937725 -1.79562792662e-16 -1.36998460454e-14)
(-0.00124715242344 -1.6368222847e-16 -1.67466284969e-14)
(-0.00123867071863 -1.44737545858e-16 -1.93595137511e-14)
(-0.00122902237318 -1.23849385911e-16 -2.15272485551e-14)
(-0.00121832444052 -1.00773857894e-16 -2.32571960625e-14)
(-0.00120667595502 -7.60356867479e-17 -2.45563680498e-14)
(-0.0011941603968 -4.97422591867e-17 -2.54386017022e-14)
(-0.00118084768946 -2.25783059927e-17 -2.59249633875e-14)
(-0.00116679580418 5.47099895822e-18 -2.60381622129e-14)
(-0.00115205202446 3.42426858302e-17 -2.58041187088e-14)
(-0.00113665391376 6.32434068538e-17 -2.52487193501e-14)
(-0.00112063002067 9.19848234363e-17 -2.44021920173e-14)
(-0.00110400035136 1.20769090214e-16 -2.32954716463e-14)
(-0.00108677663636 1.48457144866e-16 -2.19587194066e-14)
(-0.00106896241756 1.75245504149e-16 -2.04259297566e-14)
(-0.00105055298238 2.00395728877e-16 -1.87282990603e-14)
(-0.00103153517433 2.23853944574e-16 -1.69016450578e-14)
(-0.00101188711427 2.44990549087e-16 -1.4976685416e-14)
(-0.000991577874564 2.62939100772e-16 -1.29879721866e-14)
(-0.000970567159284 2.77671364757e-16 -1.09696580469e-14)
(-0.000948805060521 2.88788181788e-16 -8.95275229644e-15)
(-0.000926231982886 2.9508273414e-16 -6.97067765243e-15)
(-0.000902778858887 2.96412891254e-16 -5.05500232137e-15)
(-0.000878367816105 2.9225406613e-16 -3.23532057044e-15)
(-0.000852913502253 2.82102765629e-16 -1.54040172673e-15)
(-0.000826325321185 2.65495541391e-16 3.52108436435e-18)
(-0.000798510868325 2.42310991712e-16 1.37279679479e-15)
(-0.000769380857671 2.12596524858e-16 2.5476795727e-15)
(-0.000738855767599 1.76637990829e-16 3.51245831847e-15)
(-0.000706874255273 1.34981389921e-16 4.25742960309e-15)
(-0.000673403049235 8.8659552691e-17 4.77851153835e-15)
(-0.000638447499894 3.92786453004e-17 5.0789170825e-15)
(-0.000602061280632 -1.12783656238e-17 5.16979153968e-15)
(-0.000564353033494 -6.06695242961e-17 5.06965445616e-15)
(-0.000525487334123 -1.06544992548e-16 4.80401774883e-15)
(-0.000485677607113 -1.46690112646e-16 4.40390293985e-15)
(-0.000445169887153 -1.79229892664e-16 3.90371171542e-15)
(-0.000404218558527 -2.02835437835e-16 3.33888774465e-15)
(-0.000363057743191 -2.16870195812e-16 2.74337811244e-15)
(-0.000321873588092 -2.20804688689e-16 2.14839724725e-15)
(-0.000280782062167 -2.14151590074e-16 1.58209844399e-15)
(-0.000239813554388 -1.96174776683e-16 1.06964801512e-15)
(-0.000198900006769 -1.65736215888e-16 6.33836595911e-16)
(-0.000157852037381 -1.2201598915e-16 2.95168342327e-16)
(-0.000116295427954 -6.60732639306e-17 7.02185122359e-17)
(-7.34767233106e-05 -4.30561960316e-18 -3.23404593722e-17)
(-2.76212465066e-05 3.77660250434e-17 -1.46531077446e-17)
(-0.00126624804942 2.18543967451e-15 2.07956189531e-16)
(-0.00126408745757 6.37809050811e-15 2.01762672769e-16)
(-0.00126003841989 1.02310701226e-14 1.92869222256e-16)
(-0.00125432918108 1.37018136917e-14 1.79523946373e-16)
(-0.00124715225969 1.67468614096e-14 1.63462884602e-16)
(-0.00123867059202 1.93591256186e-14 1.44595935636e-16)
(-0.00122902228694 2.15269833608e-14 1.23859948787e-16)
(-0.00121832439642 2.32563390678e-14 1.00671897448e-16)
(-0.00120667595333 2.45555397475e-14 7.60214264315e-17)
(-0.00119416043644 2.54375090202e-14 4.97265998669e-17)
(-0.00118084776815 2.59249927088e-14 2.2863799708e-17)
(-0.00116679591862 2.6038174199e-14 -5.83149948452e-18)
(-0.00115205217056 2.58033756089e-14 -3.42587287993e-17)
(-0.00113665408686 2.52478488681e-14 -6.32458653469e-17)
(-0.00112063021577 2.44018285687e-14 -9.19371960291e-17)
(-0.0011040005633 2.32952004618e-14 -1.20762553091e-16)
(-0.00108677685999 2.19585148585e-14 -1.48366070403e-16)
(-0.00106896264793 2.04262707595e-14 -1.75336563751e-16)
(-0.00105055321485 1.87283838048e-14 -2.00518886893e-16)
(-0.00103153540467 1.69015552894e-14 -2.23959895713e-16)
(-0.00101188733875 1.49766838949e-14 -2.44958587987e-16)
(-0.000991578089966 1.29878153988e-14 -2.63047616133e-16)
(-0.000970567362988 1.09693315269e-14 -2.77797336494e-16)
(-0.000948805250476 8.95251522214e-15 -2.88821758022e-16)
(-0.000926232157613 6.97032185683e-15 -2.94993734216e-16)
(-0.000902779017462 5.0546738499e-15 -2.96497791484e-16)
(-0.000878367958088 3.23484119224e-15 -2.92234837296e-16)
(-0.000852913627679 1.54010627832e-15 -2.82033840215e-16)
(-0.000826325430471 -3.67290409806e-18 -2.65457033438e-16)
(-0.000798510962239 -1.37302129024e-15 -2.42368352786e-16)
(-0.000769380937207 -2.54796282919e-15 -2.12548068276e-16)
(-0.000738855833969 -3.51276262795e-15 -1.76661094094e-16)
(-0.000706874309808 -4.25774724911e-15 -1.34933130655e-16)
(-0.000673403093316 -4.7787793157e-15 -8.86338513053e-17)
(-0.000638447534931 -5.07917001445e-15 -3.92225864859e-17)
(-0.000602061307972 -5.17001109035e-15 1.12963427742e-17)
(-0.000564353054415 -5.06983207707e-15 6.06839869747e-17)
(-0.000525487349797 -4.80415398533e-15 1.06582124213e-16)
(-0.000485677618582 -4.4039822184e-15 1.46719341221e-16)
(-0.000445169895329 -3.90376594807e-15 1.79241371623e-16)
(-0.00040421856418 -3.33892318436e-15 2.02854556515e-16)
(-0.000363057746964 -2.74340484583e-15 2.16870034583e-16)
(-0.000321873590501 -2.14843474051e-15 2.20804683141e-16)
(-0.000280782063623 -1.58212698199e-15 2.14153586645e-16)
(-0.000239813555207 -1.06967228495e-15 1.96176171271e-16)
(-0.000198900007183 -6.33851460795e-16 1.65736556903e-16)
(-0.00015785203756 -2.95169952459e-16 1.22016918715e-16)
(-0.000116295428014 -7.02191490492e-17 6.60730853246e-17)
(-7.34767233217e-05 3.23398554167e-17 4.30539207788e-18)
(-2.76212465066e-05 1.46527119501e-17 -3.77662488062e-17)
)
;
    }
    inlet
    {
        type            cyclic;
    }
    outlet
    {
        type            cyclic;
    }
    side_left
    {
        type            symmetryPlane;
    }
    side_bottom
    {
        type            symmetryPlane;
    }
}


// ************************************************************************* //
