/*--------------------------------*- C++ -*----------------------------------*\
| =========                 |                                                 |
| \\      /  F ield         | OpenFOAM: The Open Source CFD Toolbox           |
|  \\    /   O peration     | Version:  3.0.1                                 |
|   \\  /    A nd           | Web:      www.OpenFOAM.org                      |
|    \\/     M anipulation  |                                                 |
\*---------------------------------------------------------------------------*/
FoamFile
{
    version     2.0;
    format      ascii;
    class       volTensorField;
    location    "50000";
    object      grad(U);
}
// * * * * * * * * * * * * * * * * * * * * * * * * * * * * * * * * * * * * * //

dimensions      [0 0 -1 0 0 0 0];

internalField   nonuniform List<tensor> 
2500
(
(0 0 0 -0.00782702312379 2.18933430245e-11 1.33169625831e-13 -0.00782681904548 -1.34029847517e-13 -2.18846168404e-11)
(0 0 0 -0.0230033469697 2.13744425576e-11 3.84993372267e-13 -0.00784075832977 -3.93119631008e-13 -2.13677601835e-11)
(9.25016808536e-15 6.73038309131e-26 0 -0.0371921222533 2.04268458947e-11 6.12168941694e-13 -0.0078679545868 -6.30476109017e-13 -2.04337286231e-11)
(0 0 0 -0.0503973294908 1.91569317198e-11 8.1601702834e-13 -0.00790766671287 -8.44568388043e-13 -1.91602899681e-11)
(0 0 0 -0.0627369965466 1.76183491763e-11 9.92827480278e-13 -0.00795805181127 -1.03841102795e-12 -1.76218654547e-11)
(1.06506009765e-14 1.54986642541e-25 -9.68666515881e-27 -0.0743971484481 1.58758683851e-11 1.15118416364e-12 -0.00801595406499 -1.20412696467e-12 -1.58907624417e-11)
(0 8.1221767833e-26 0 -0.0855915001196 1.40029615408e-11 1.2879871603e-12 -0.00807723881322 -1.34869529366e-12 -1.4006369033e-11)
(0 8.51296016436e-26 0 -0.0965360062318 1.20258593865e-11 1.4069942425e-12 -0.00813729909154 -1.46985809574e-12 -1.20293898035e-11)
(0 0 0 -0.10743648561 9.98151338648e-12 1.51386306035e-12 -0.00819152040248 -1.56611469771e-12 -9.98361806466e-12)
(0 0 0 -0.118484555906 7.90629299827e-12 1.60021136666e-12 -0.00823563363979 -1.64819086524e-12 -7.90549160376e-12)
(0 0 0 -0.129857902942 5.8225282993e-12 1.67575254862e-12 -0.00826595730603 -1.70870153444e-12 -5.81922177503e-12)
(0 0 0 -0.141722464979 3.74178766502e-12 1.73996032342e-12 -0.00827954928305 -1.75088665538e-12 -3.74190643354e-12)
(7.39948103469e-15 1.07676620751e-25 0 -0.15423531962 1.68685582362e-12 1.79452507141e-12 -0.00827428756779 -1.77482637276e-12 -1.69356403081e-12)
(0 0 0 -0.167547780061 -3.16680942089e-13 1.83971041032e-12 -0.00824889422274 -1.78289681791e-12 3.18692958161e-13)
(0 0 0 -0.1818085766 -2.27698093967e-12 1.87454652273e-12 -0.00820291217179 -1.77795139802e-12 2.27752798525e-12)
(0 0 0 -0.19716716682 -4.17918840136e-12 1.9017724001e-12 -0.00813664308014 -1.7594775059e-12 4.17903938429e-12)
(0 0 0 -0.213777285733 -6.0137395039e-12 1.91977636284e-12 -0.00805105421468 -1.73094555481e-12 6.0135561304e-12)
(0 0 0 -0.231800872277 -7.77818485283e-12 1.93008546765e-12 -0.00794766307827 -1.69267552045e-12 7.77730421016e-12)
(0 0 0 -0.251412521323 -9.46604842737e-12 1.93272524537e-12 -0.00782840888385 -1.64624611978e-12 9.4654223939e-12)
(0 0 0 -0.272804627954 -1.10766511106e-11 1.92780186122e-12 -0.0076955199444 -1.5930157967e-12 1.10753008639e-11)
(0 0 0 -0.296193422828 -1.26066644327e-11 1.91594896378e-12 -0.00755138540925 -1.53351816675e-12 1.26044934189e-11)
(0 0 0 -0.321826151557 -1.40543079229e-11 1.89661062544e-12 -0.0073984382445 -1.4693849406e-12 1.40520748316e-11)
(0 0 0 -0.34998973376 -1.54177611582e-11 1.87024801962e-12 -0.00723905426786 -1.40077153081e-12 1.54157641752e-11)
(0 0 0 -0.381021357552 -1.66972195718e-11 1.83430331338e-12 -0.00707547045483 -1.33091253021e-12 1.66965853968e-11)
(0 0 0 -0.415321636948 -1.78918971703e-11 1.78895027613e-12 -0.00690972339348 -1.25948545471e-12 1.78917418053e-11)
(0 0 0 -0.453371202325 -1.90023014756e-11 1.73532632459e-12 -0.00674360720217 -1.18543209244e-12 1.9001586161e-11)
(0 0 0 -0.495751937786 -2.00263436038e-11 1.67044465218e-12 -0.00657864909507 -1.11119089351e-12 2.00253834076e-11)
(0 0 0 -0.543174574867 -2.0962080922e-11 1.59321540462e-12 -0.00641609990275 -1.03712847352e-12 2.09615235285e-11)
(0 0 0 -0.596515073566 -2.181022185e-11 1.50255450258e-12 -0.00625693628067 -9.63088704948e-13 2.18090539766e-11)
(0 0 0 -0.656863287222 -2.25682477412e-11 1.39753157403e-12 -0.0061018716105 -8.88455836696e-13 2.25670994922e-11)
(0 0 0 -0.725589007081 -2.32342136423e-11 1.27236503797e-12 -0.00595137222586 -8.16736981342e-13 2.32331824089e-11)
(0 0 0 -0.80443291162 -2.38061456643e-11 1.12472457521e-12 -0.00580567618954 -7.4713271237e-13 2.38046736518e-11)
(0 0 0 -0.895633684019 -2.42799232107e-11 9.50838567249e-13 -0.00566481161691 -6.79337363378e-13 2.42776652529e-11)
(0 0 0 -1.00210836376 -2.46496685191e-11 7.45354378547e-13 -0.00552861163104 -6.13336309039e-13 2.46475943829e-11)
(0 0 0 -1.12771203774 -2.49091014058e-11 5.00677021301e-13 -0.00539672213785 -5.49515471771e-13 2.4908587646e-11)
(0 0 0 -1.27761694837 -2.50524354223e-11 2.06359770266e-13 -0.00526859675363 -4.88507351361e-13 2.50524299125e-11)
(0 0 0 -1.45887195538 -2.50689317422e-11 -1.50950382934e-13 -0.00514346858882 -4.3007233897e-13 2.50687455559e-11)
(0 0 0 -1.6812313718 -2.49426725317e-11 -5.90283973272e-13 -0.00502027815455 -3.74229051337e-13 2.49434000356e-11)
(0 0 0 -1.9583677806 -2.46556014388e-11 -1.13908611339e-12 -0.00489751271789 -3.21280677928e-13 2.46575942081e-11)
(0 0 0 -2.30955418771 -2.41835328575e-11 -1.83679814631e-12 -0.00477285428516 -2.71580224418e-13 2.4185114131e-11)
(0 0 0 -2.76160395169 -2.34887038827e-11 -2.73947493001e-12 -0.00464239260404 -2.25021535946e-13 2.3490412367e-11)
(0 0 0 -3.34953473766 -2.25219498022e-11 -3.92472696297e-12 -0.00449881899434 -1.81890666145e-13 2.25242143079e-11)
(0 0 0 -4.10989931382 -2.12182258857e-11 -5.48467343788e-12 -0.00432731118032 -1.42639718993e-13 2.12205439044e-11)
(0 0 0 -5.05052673506 -1.95010340792e-11 -7.47551979154e-12 -0.00409727809739 -1.07390500533e-13 1.94988911491e-11)
(0 0 0 -6.08283724735 -1.73012138167e-11 -9.78610745128e-12 -0.00375359224902 -7.62196089427e-14 1.72877059049e-11)
(0 0 0 -6.98919144169 -1.46027435803e-11 -1.20342292829e-11 -0.0032367274477 -5.00902445904e-14 1.45873159573e-11)
(0 0 0 -7.57228229251 -1.1530967445e-11 -1.3795402393e-11 -0.00255684115046 -2.94122441667e-14 1.15242061996e-11)
(0 0 0 -7.84561053293 -8.25490090073e-12 -1.49971120555e-11 -0.00180652111978 -1.43499367884e-14 8.28248014496e-12)
(0 0 0 -7.9631730415 -4.8906737651e-12 -1.58700698105e-11 -0.00106236177052 -4.73422677934e-15 4.98526526236e-12)
(0 0 0 -8.0371924729 -1.78417590502e-12 -1.66190702744e-11 -0.000348625725569 -2.48280122234e-16 1.68274143419e-12)
(0 0 0 -0.00784096240809 2.13723461223e-11 3.89800119322e-13 -0.0230028106886 -3.88310117278e-13 -2.13705371051e-11)
(0 0 0 -0.0230457910082 2.0866576332e-11 1.12850696823e-12 -0.0230452531945 -1.13745009895e-12 -2.08628685538e-11)
(0 0 0 -0.0372642524118 1.99428802759e-11 1.7938278825e-12 -0.0231278592391 -1.82504589646e-12 -1.99463543372e-11)
(0 0 0 -0.0504989680656 1.86985530193e-11 2.39170150588e-12 -0.0232482610454 -2.44465077921e-12 -1.87014523591e-11)
(0 0 0 -0.0628648857308 1.71951748796e-11 2.91316507546e-12 -0.0234010136153 -3.00305025195e-12 -1.71976303992e-11)
(1.11630347701e-14 8.12217678327e-26 0 -0.0745445407952 1.54930256071e-11 3.37422760691e-12 -0.0235769469718 -3.48713616547e-12 -1.55005889833e-11)
(0 0 0 -0.0857486390467 1.36594766319e-11 3.77552594439e-12 -0.0237640705291 -3.90590430161e-12 -1.36637064307e-11)
(-1.22630529642e-14 -8.92254535878e-26 1.11531816985e-26 -0.0966909690927 1.17314843679e-11 4.12108760563e-12 -0.0239489870656 -4.26173815059e-12 -1.17265942038e-11)
(0 0 0 -0.107576070123 9.72823377011e-12 4.42469702337e-12 -0.024118206657 -4.55092425735e-12 -9.731942101e-12)
(0 9.80178316824e-26 -1.22522289603e-26 -0.118595086741 7.69439692397e-12 4.68424163225e-12 -0.0242591566068 -4.78295355417e-12 -7.70575756081e-12)
(0 0 0 -0.129925934774 5.66267349305e-12 4.9091028873e-12 -0.0243608844783 -4.9559465662e-12 -5.66600791784e-12)
(7.39948103457e-15 1.07676620749e-25 -3.36489439841e-27 -0.141735387204 3.63415452484e-12 5.09805079562e-12 -0.0244145094814 -5.07812007155e-12 -3.63941731808e-12)
(1.55109865167e-14 1.1285728045e-25 -1.76339500703e-27 -0.154181867529 1.63252902392e-12 5.25914279196e-12 -0.0244134756624 -5.1477859043e-12 -1.63810195589e-12)
(0 0 0 -0.167418448832 -3.21755025723e-13 5.38961483595e-12 -0.0243536454233 -5.17456836905e-12 3.23240980788e-13)
(0 0 0 -0.181595928861 -2.23220362863e-12 5.49105856029e-12 -0.0242332594382 -5.16248604905e-12 2.23442624465e-12)
(0 0 0 -0.196866024493 -4.08578393895e-12 5.56908039169e-12 -0.0240527839623 -5.11225213583e-12 4.08705051225e-12)
(0 0 0 -0.213384801469 -5.87483367969e-12 5.62148220846e-12 -0.0238146659232 -5.03139143137e-12 5.87510616522e-12)
(0 0 0 -0.231316483099 -7.5938035951e-12 5.6520180267e-12 -0.02352301873 -4.92145048776e-12 7.59324102932e-12)
(0 0 0 -0.250837794844 -9.23881194536e-12 5.65961562672e-12 -0.023183263341 -4.78816813382e-12 9.23819294108e-12)
(0 0 0 -0.272143018941 -1.08073306517e-11 5.6460016318e-12 -0.0228017502482 -4.63392547052e-12 1.08066980661e-11)
(0 0 0 -0.295449963042 -1.22972159956e-11 5.61152516963e-12 -0.0223853865272 -4.46192926937e-12 1.22972099812e-11)
(0 0 0 -0.321007097235 -1.37060869512e-11 5.55397004804e-12 -0.0219412889709 -4.27715040834e-12 1.37074597982e-11)
(0 0 0 -0.349102195191 -1.5037264901e-11 5.47534151183e-12 -0.0214764791838 -4.07972553722e-12 1.5037439504e-11)
(6.50233326841e-15 0 2.36553506271e-26 -0.380072932548 -1.62902929361e-11 5.37346025349e-12 -0.0209976311046 -3.8733259541e-12 1.62846706261e-11)
(0 0 0 -0.414320064855 -1.7452658632e-11 5.24349399365e-12 -0.0205108758397 -3.66310570728e-12 1.74512153817e-11)
(0 0 0 -0.452324050523 -1.85332094923e-11 5.0869687533e-12 -0.0200216632812 -3.44711049462e-12 1.85339343271e-11)
(0 0 0 -0.494666327459 -1.95346806584e-11 4.89726747204e-12 -0.0195346764008 -3.23076987781e-12 1.95334459588e-11)
(0 0 0 -0.542056947121 -2.04474497272e-11 4.67067677665e-12 -0.0190537911393 -3.01516282843e-12 2.04478928976e-11)
(-8.22451015649e-15 -5.98411872961e-26 -2.9920593648e-26 -0.595370993188 -2.12686998602e-11 4.40633059733e-12 -0.018582073119 -2.79780265782e-12 2.12770658071e-11)
(-8.62021711653e-15 -6.27203343649e-26 -3.13601671825e-26 -0.655697277074 -2.200984547e-11 4.09465309942e-12 -0.018121801979 -2.58338190615e-12 2.20178296117e-11)
(0 0 0 -0.724404402131 -2.26689888126e-11 3.72859632023e-12 -0.0176745139297 -2.37228473421e-12 2.266869127e-11)
(0 0 0 -0.803231717241 -2.32301489138e-11 3.29716232716e-12 -0.0172410535076 -2.16658037475e-12 2.32271963352e-11)
(0 0 0 -0.894416416067 -2.36920487307e-11 2.78695936515e-12 -0.0168216259429 -1.96767694939e-12 2.36898153637e-11)
(0 0 0 -1.00087383595 -2.40518605012e-11 2.18351039977e-12 -0.016415840579 -1.77423776609e-12 2.40519527684e-11)
(0 0 0 -1.12645703748 -2.43067100431e-11 1.46368192637e-12 -0.0160227340685 -1.5881736231e-12 2.43073535717e-11)
(0 0 0 -1.27633569128 -2.44482881115e-11 5.98446788909e-13 -0.0156407560944 -1.4096600712e-12 2.44482998251e-11)
(0 0 0 -1.45755509634 -2.44631139912e-11 -4.51932607901e-13 -0.0152676864461 -1.23866422522e-12 2.44643075942e-11)
(-6.277020037e-15 -2.28356658663e-26 -2.28356658663e-26 -1.67986409203 -2.43382482966e-11 -1.74346974742e-12 -0.014900422318 -1.07548099315e-12 2.43417587191e-11)
(0 0 0 -1.95692584578 -2.40579375043e-11 -3.35709316503e-12 -0.0145345016442 -9.21538157491e-13 2.4061637275e-11)
(0 0 0 -2.30799531426 -2.35961205742e-11 -5.4074818509e-12 -0.0141630575569 -7.77170950053e-13 2.35987131147e-11)
(0 0 0 -2.75984790246 -2.29151237379e-11 -8.05838821146e-12 -0.0137744783961 -6.41996158128e-13 2.29179593349e-11)
(0 0 0 -3.34741648952 -2.1969870982e-11 -1.15369129282e-11 -0.0133470377112 -5.17474346719e-13 2.19713566529e-11)
(3.96976077014e-15 1.4441905551e-26 2.8883811102e-26 -4.10706614225 -2.06950261353e-11 -1.61092238713e-11 -0.0128366667923 -4.03460232984e-13 2.06945750219e-11)
(0 0 0 -5.04627875631 -1.90122247264e-11 -2.19373643818e-11 -0.0121524743562 -3.01488211839e-13 1.90095606834e-11)
(0 0 0 -6.07615842828 -1.68595081553e-11 -2.86917545408e-11 -0.0111309499431 -2.13109042343e-13 1.68475783529e-11)
(0 0 0 -6.97947125757 -1.42248169405e-11 -3.52498335237e-11 -0.00959622488454 -1.39157126706e-13 1.4210740187e-11)
(0 0 0 -7.56013184904 -1.12288028362e-11 -4.03748661043e-11 -0.00757941679464 -8.12346862348e-14 1.12234557896e-11)
(0 0 0 -7.83231984913 -8.03655141498e-12 -4.38605697209e-11 -0.0053549130051 -3.93620207543e-14 8.06455422802e-12)
(0 0 0 -7.94958924918 -4.76034191796e-12 -4.63821556353e-11 -0.00314903958277 -1.28999901942e-14 4.85309800827e-12)
(0 0 0 -8.02357027005 -1.73652406026e-12 -4.85354249209e-11 -0.00103339182517 -6.52880171754e-16 1.63766110815e-12)
(0 0 0 -0.00786815720288 2.04307129237e-11 6.29314394727e-13 -0.0371914313733 -6.13378057902e-13 -2.04346900511e-11)
(0 0 0 -0.0231283955906 1.99487823353e-11 1.82000249464e-12 -0.0372635550473 -1.79897100171e-12 -1.99453801992e-11)
(0 0 0 -0.037404234113 1.90676178704e-11 2.88772476304e-12 -0.0374035316526 -2.89251349999e-12 -1.90655616802e-11)
(0 0 0 -0.0506959948583 1.78730492538e-11 3.84515648082e-12 -0.0376072082224 -3.88071665906e-12 -1.78693518974e-11)
(0 0 0 -0.0631132410785 1.64281244736e-11 4.6869556348e-12 -0.0378658942858 -4.76495817408e-12 -1.64287710832e-11)
(0 0 0 -0.0748323026126 1.47955535712e-11 5.42393393892e-12 -0.0381652231489 -5.54020445055e-12 -1.47984113968e-11)
(0 8.92254535893e-26 -2.23063633973e-26 -0.086058425485 1.30317494246e-11 6.06907929518e-12 -0.0384863965927 -6.20638412733e-12 -1.30385590975e-11)
(0 0 0 -0.0970013487096 1.11788906327e-11 6.62608287436e-12 -0.0388082643734 -6.77284842954e-12 -1.11811570664e-11)
(0 0 0 -0.107863078826 9.26410573534e-12 7.10719075932e-12 -0.0391093062253 -7.24093378323e-12 -9.26875564946e-12)
(0 0 0 -0.118833630322 7.32222423773e-12 7.52774288335e-12 -0.0393691882017 -7.60805797223e-12 -7.32502469738e-12)
(0 0 0 -0.13009103131 5.37676429719e-12 7.88818854632e-12 -0.0395698738877 -7.88617655528e-12 -5.37466016253e-12)
(0 0 0 -0.141803258371 3.43890349332e-12 8.1893580034e-12 -0.0396963668315 -8.08522852197e-12 -3.4375994207e-12)
(0 0 0 -0.154130886647 1.52799676875e-12 8.44423296698e-12 -0.0397371617027 -8.20308460026e-12 -1.52691961302e-12)
(0 0 0 -0.167229938209 -3.40588778723e-13 8.6504399258e-12 -0.0396844590739 -8.25262702842e-12 3.42136335743e-13)
(0 0 0 -0.181254787005 -2.16115626978e-12 8.8121527202e-12 -0.039534179537 -8.23883232378e-12 2.16381479398e-12)
(0 0 0 -0.196361160613 -3.92624875256e-12 8.93497694273e-12 -0.0392858032521 -8.16575883653e-12 3.92758113657e-12)
(0 0 0 -0.212709360732 -5.62877016439e-12 9.01869631907e-12 -0.0389420602479 -8.04198203526e-12 5.62963711371e-12)
(0 0 0 -0.230467857887 -7.26456023676e-12 9.06660115103e-12 -0.0385084997647 -7.87254039528e-12 7.26467032064e-12)
(0 0 0 -0.249817432021 -8.83005102001e-12 9.07944996662e-12 -0.0379929719596 -7.66386208107e-12 8.82916911139e-12)
(0 0 0 -0.270956047438 -1.0320664325e-11 9.05808636128e-12 -0.0374050588534 -7.4216837094e-12 1.03216966077e-11)
(1.18381242535e-14 8.61336903001e-26 2.1533422575e-26 -0.294104677443 -1.17404767e-11 9.00231849386e-12 -0.0367554913619 -7.15163771554e-12 1.17389520961e-11)
(0 0 0 -0.319514340522 -1.30817647969e-11 8.91255169057e-12 -0.0360555872379 -6.85778792769e-12 1.30812509393e-11)
(-6.50233326831e-15 -9.4621402507e-26 -2.36553506268e-26 -0.347474685071 -1.43412689462e-11 8.78582659961e-12 -0.0353167391798 -6.54640446403e-12 1.43477873741e-11)
(0 0 0 -0.378324573608 -1.55337417949e-11 8.62276234241e-12 -0.0345499739525 -6.21875905454e-12 1.55351176599e-11)
(0 0 0 -0.412465282338 -1.66440943655e-11 8.41841219975e-12 -0.0337655958954 -5.88092181437e-12 1.66455403514e-11)
(-7.48675661029e-15 -1.08946647528e-25 -2.72366618821e-26 -0.45037717231 -1.76759766434e-11 8.16734568843e-12 -0.0329729192442 -5.537404026e-12 1.76779877543e-11)
(1.56939358706e-14 5.7094206097e-26 2.85471030485e-26 -0.492641031436 -1.86375130533e-11 7.86638865948e-12 -0.0321800865282 -5.18943436188e-12 1.8630086211e-11)
(0 0 0 -0.539965781224 -1.95028870906e-11 7.50853551177e-12 -0.0313939647681 -4.84009664446e-12 1.95031008712e-11)
(-8.62021711701e-15 -6.27203343685e-26 0 -0.593224966 -2.02852290972e-11 7.08393041273e-12 -0.0306201076872 -4.49353534194e-12 2.02945775162e-11)
(-9.0349627791e-15 -6.57380062265e-26 -6.57380062265e-26 -0.653505508712 -2.09931468779e-11 6.58200136562e-12 -0.0298627692228 -4.15216030447e-12 2.1002739676e-11)
(-9.46966315525e-15 -6.89008677382e-26 -6.89008677382e-26 -0.722173816397 -2.1617708196e-11 5.99331073937e-12 -0.0291249538063 -3.81464090765e-12 2.1625866421e-11)
(0 0 0 -0.800966747278 -2.21615375981e-11 5.30088066762e-12 -0.0284084878476 -3.48368874558e-12 2.216066342e-11)
(0 0 0 -0.892118681555 -2.26082162222e-11 4.48378037979e-12 -0.0277140974502 -3.16121432368e-12 2.26044759423e-11)
(0 0 0 -0.99854172607 -2.29550011495e-11 3.51454549701e-12 -0.0270414759699 -2.84927833579e-12 2.29524467932e-11)
(5.7139599027e-15 0 4.15745300612e-26 -1.12408508928 -2.32027843566e-11 2.35832936926e-12 -0.0263893214148 -2.54859904403e-12 2.31987566488e-11)
(0 0 0 -1.2739135545 -2.33380223297e-11 9.68006893711e-13 -0.0257553143661 -2.25994679481e-12 2.33358823575e-11)
(0 0 0 -1.45506566708 -2.33509060916e-11 -7.2039981757e-13 -0.0251359843498 -1.98338467535e-12 2.33535938974e-11)
(0 0 -4.78687226433e-26 -1.67727990765 -2.32340176156e-11 -2.79864761606e-12 -0.0245263622778 -1.72093096598e-12 2.32385089919e-11)
(0 0 0 -1.9542016576 -2.29710302003e-11 -5.39556752783e-12 -0.0239191969958 -1.47362050558e-12 2.29724085513e-11)
(0 0 0 -2.30505182153 -2.25290063662e-11 -8.69444424869e-12 -0.0233032310374 -1.24082672455e-12 2.25311996487e-11)
(0 0 0 -2.75653426114 -2.18779123704e-11 -1.29601854416e-11 -0.0226593360206 -1.0240101808e-12 2.18809418064e-11)
(0 0 0 -3.34342217466 -2.09713378209e-11 -1.85555110242e-11 -0.0219516436287 -8.2390776152e-13 2.09756690691e-11)
(-8.32151680527e-15 -7.5683754451e-27 0 -4.10172767333 -1.9747079927e-11 -2.59070809317e-11 -0.0211073765307 -6.41518609256e-13 1.97538889109e-11)
(0 0 -6.34601096581e-26 -5.03828196932 -1.81423535926e-11 -3.52689924572e-11 -0.0199766222157 -4.78693231148e-13 1.81410528567e-11)
(0 0 0 -6.06360227911 -1.60870571294e-11 -4.61034261339e-11 -0.0182905919461 -3.37488466769e-13 1.60732234077e-11)
(0 0 0 -6.96122365398 -1.35696295421e-11 -5.66075169389e-11 -0.0157623632764 -2.1988823991e-13 1.35546343116e-11)
(0 0 0 -7.5373463704 -1.0712184589e-11 -6.48091290334e-11 -0.0124462122574 -1.28172262866e-13 1.07050035774e-11)
(0 0 0 -7.80740897898 -7.66807711015e-12 -7.03899473541e-11 -0.00879245760374 -6.2157307585e-14 7.69319223097e-12)
(0 0 0 -7.92413251943 -4.54337997921e-12 -7.44326386238e-11 -0.00517045563802 -2.04130139587e-14 4.63069094439e-12)
(0 -1.02697495892e-29 -2.62905589483e-27 -7.99804195756 -1.65833099391e-12 -7.78866886244e-11 -0.0016967407285 -1.09244353317e-15 1.56305783807e-12)
(0 0 0 -0.00790786482121 1.91587950541e-11 8.46212774732e-13 -0.0503966772606 -8.14389009268e-13 -1.91624585939e-11)
(0 0 0 -0.0232487880271 1.87018583884e-11 2.44509847663e-12 -0.0504983011533 -2.3912504027e-12 -1.87010818613e-11)
(0 0 0 -0.0376079058208 1.78711546622e-11 3.87968334951e-12 -0.0506953099269 -3.8461833653e-12 -1.78714348136e-11)
(0 0 0 -0.0509828213172 1.67456703574e-11 5.1645231191e-12 -0.0509821274335 -5.16411005357e-12 -1.6743637101e-11)
(0 0 0 -0.0634762436965 1.53815387206e-11 6.29549895008e-12 -0.0513477158319 -6.34235077139e-12 -1.53842454912e-11)
(0 0 0 -0.075256373061 1.38423323407e-11 7.28562143234e-12 -0.0517738392705 -7.37616430557e-12 -1.38468650606e-11)
(0 0 0 -0.0865210849402 1.21800199474e-11 8.14859536115e-12 -0.0522363886551 -8.26777355911e-12 -1.21829218471e-11)
(0 0 0 -0.097474418947 1.04304526631e-11 8.89648823098e-12 -0.0527078672283 -9.02322270138e-12 -1.04343173787e-11)
(0 0 0 -0.108314547968 8.62816728228e-12 9.54357274426e-12 -0.0531598503087 -9.64671035748e-12 -8.63130369949e-12)
(0 0 0 -0.119229417316 6.80416728609e-12 1.01016201511e-11 -0.0535649715448 -1.01439423216e-11 -6.80084762289e-12)
(0 0 0 -0.130396583115 4.97321542093e-12 1.05769145911e-11 -0.0538983853975 -1.0525021886e-11 -4.97105084118e-12)
(0 0 0 -0.141984990629 3.15540495518e-12 1.09774872306e-11 -0.0541387888873 -1.0797108921e-11 -3.15328493617e-12)
(0 0 0 -0.15415748054 1.36857199941e-12 1.13120742842e-11 -0.0542690948685 -1.0965762163e-11 -1.365670378e-12)
(0 0 0 -0.167073484905 -3.7874905077e-13 1.15841773545e-11 -0.0542768225153 -1.10411281273e-11 3.80227971356e-13)
(0 0 0 -0.180891751269 -2.07738338812e-12 1.17980003316e-11 -0.0541542448481 -1.1031689998e-11 2.078609698e-12)
(0 0 0 -0.195773126332 -3.72202759345e-12 1.19587345581e-11 -0.0538983185156 -1.09446153449e-11 3.72384098159e-12)
(0 0 0 -0.211883522778 -5.30839213323e-12 1.20694908048e-11 -0.0535104175449 -1.07880910707e-11 5.30774844354e-12)
(0 7.84073413436e-26 1.96018353359e-26 -0.229397236393 -6.82926996975e-12 1.21314212946e-11 -0.0529958956774 -1.05715759392e-11 6.8291866978e-12)
(0 0 0 -0.24850080402 -8.28412026104e-12 1.21480825684e-11 -0.0523635100727 -1.03009562478e-11 8.28367932812e-12)
(0 0 0 -0.269397610506 -9.67103073888e-12 1.21187632401e-11 -0.0516247450641 -9.98551201265e-12 9.6703516432e-12)
(0 0 0 -0.292313479218 -1.09866920038e-11 1.20452235076e-11 -0.0507930806416 -9.63047678116e-12 1.09869871217e-11)
(0 0 0 -0.317503523882 -1.22323569438e-11 1.19285849784e-11 -0.0498832505065 -9.24079409989e-12 1.22335571689e-11)
(0 0 0 -0.345260606583 -1.340627646e-11 1.17592857394e-11 -0.0489105320386 -8.83011405394e-12 1.34087491246e-11)
(0 0 0 -0.375925854903 -1.45106251455e-11 1.15405729702e-11 -0.0478901037023 -8.39764504177e-12 1.45130371195e-11)
(0 0 0 -0.409901850836 -1.55433347663e-11 1.12711666765e-11 -0.0468364956134 -7.94602798618e-12 1.55445344241e-11)
(0 0 0 -0.447669337605 -1.6502481471e-11 1.09372586566e-11 -0.0457631490363 -7.48804138836e-12 1.65040925395e-11)
(0 0 0 -0.48980863104 -1.73889624443e-11 1.05360526866e-11 -0.0446820895844 -7.023383547e-12 1.73908106974e-11)
(0 0 0 -0.537027416539 -1.8203062955e-11 1.00599251073e-11 -0.0436037100121 -6.55483832512e-12 1.8203919393e-11)
(9.0349627796e-15 0 6.57380062301e-26 -0.590197334022 -1.89432153908e-11 9.49456783428e-12 -0.0425366513962 -6.08901281856e-12 1.89414312923e-11)
(0 0 0 -0.650402821627 -1.96044321082e-11 8.82792289226e-12 -0.0414877660109 -5.62707933383e-12 1.96030343854e-11)
(0 0 0 -0.719007288148 -2.01866939879e-11 8.04220088892e-12 -0.040462142974 -5.1723148155e-12 2.01865397134e-11)
(0 0 0 -0.79774410929 -2.06875514217e-11 7.11659686642e-12 -0.039463175214 -4.72616377223e-12 2.06885089023e-11)
(0 0 0 -0.888843670253 -2.11050563428e-11 6.0237110722e-12 -0.0384926459963 -4.2905237456e-12 2.11055416564e-11)
(0 0 0 -0.995213449253 -2.14336625662e-11 4.72666771801e-12 -0.0375508105497 -3.86823902971e-12 2.14334438752e-11)
(0 0 0 -1.12069711183 -2.16670563988e-11 3.17874676659e-12 -0.0366364433464 -3.46027466836e-12 2.16665375702e-11)
(0 0 0 -1.27045240796 -2.17948857474e-11 1.3157695809e-12 -0.0357468076963 -3.06858448604e-12 2.17975173545e-11)
(-6.57902714331e-15 -2.39343613187e-26 -9.57374452746e-26 -1.45150818447 -2.18111341806e-11 -9.49465538589e-13 -0.0348774742649 -2.69439998331e-12 2.18167570444e-11)
(0 0 0 -1.67358809154 -2.17096498433e-11 -3.73888429391e-12 -0.0340218426652 -2.33906080373e-12 2.17111391867e-11)
(0 0 0 -1.95031211674 -2.14633433932e-11 -7.22410878713e-12 -0.0331700564531 -2.00259877747e-12 2.14640310783e-11)
(0 0 0 -2.30085263898 -2.10497162365e-11 -1.16534282343e-11 -0.0323066041823 -1.6864216771e-12 2.10519715423e-11)
(0 0 0 -2.7518117041 -2.0440518504e-11 -1.73819884894e-11 -0.0314049329642 -1.39229734042e-12 2.04432733258e-11)
(0 0 0 -3.33773558622 -1.95906654726e-11 -2.48946042554e-11 -0.0304150864271 -1.12025869096e-12 1.95944793022e-11)
(0 0 0 -4.09413605262 -1.84447626995e-11 -3.47619397194e-11 -0.029235644743 -8.73410276674e-13 1.84479624833e-11)
(0 0 0 -5.02692666581 -1.69359972729e-11 -4.73142230127e-11 -0.0276580672341 -6.53027795171e-13 1.69347561297e-11)
(0 0 0 -6.04580963734 -1.50081162911e-11 -6.18156809461e-11 -0.0253102307244 -4.60617262949e-13 1.49970415401e-11)
(0 0 0 -6.93542418521 -1.26565642644e-11 -7.58512794578e-11 -0.0217992146203 -3.00524579369e-13 1.26420544412e-11)
(2.63137848564e-15 2.39322479105e-27 3.82915966567e-26 -7.50518502504 -9.99134600606e-12 -8.68031267167e-11 -0.0172062826636 -1.75251458679e-13 9.98307293431e-12)
(0 0 0 -7.77227612781 -7.1518086163e-12 -9.42670943918e-11 -0.0121534175774 -8.48899529116e-14 7.17525237493e-12)
(0 0 0 -7.88823760353 -4.23666995967e-12 -9.96897377084e-11 -0.00714672001444 -2.78741333669e-14 4.31976737624e-12)
(0 0 0 -7.9620470098 -1.54570080327e-12 -1.04329345253e-10 -0.00234527124558 -1.49913018631e-15 1.45837049694e-12)
(0 0 0 -0.00795824146887 1.76206604007e-11 1.03998195139e-12 -0.0627365382875 -9.9127616166e-13 -1.76182797012e-11)
(0 0 0 -0.0234015203823 1.71975980055e-11 3.00463436372e-12 -0.0628644026631 -2.91159773174e-12 -1.71951417206e-11)
(0 0 0 -0.037866571579 1.64308440803e-11 4.76451304115e-12 -0.0631127230116 -4.68743427886e-12 -1.64265632818e-11)
(0 0 0 -0.0513484011743 1.53856288533e-11 6.34113968349e-12 -0.0634756966095 -6.29670234867e-12 -1.53812163717e-11)
(0 0 0 -0.0639421185119 1.41182871919e-11 7.73153528077e-12 -0.0639415598148 -7.73348484997e-12 -1.41186475797e-11)
(0 0 0 -0.0758065244664 1.26887734136e-11 8.94865251591e-12 -0.0644900992565 -8.99412069952e-12 -1.2691443786e-11)
(0 0 0 -0.0871306514362 1.11433610743e-11 1.00057837078e-11 -0.065093818221 -1.00845248567e-11 -1.11464452971e-11)
(0 0 0 -0.0981113728887 9.52229296253e-12 1.09195035299e-11 -0.0657206124515 -1.10101934402e-11 -9.5227639841e-12)
(0 0 0 -0.108941672866 7.85356652481e-12 1.17101572705e-11 -0.0663365541611 -1.17737964035e-11 -7.85275689488e-12)
(0 0 0 -0.119806228978 6.16431512656e-12 1.23869398012e-11 -0.066908214929 -1.23881392501e-11 -6.16219757962e-12)
(0 0 0 -0.13088110762 4.47497435944e-12 1.29631731597e-11 -0.0674044311912 -1.28602451459e-11 -4.47317226065e-12)
(0 0 0 -0.142335411187 2.80220802654e-12 1.34465130224e-11 -0.0677975898117 -1.32016386956e-11 -2.80027676886e-12)
(0 0 0 -0.154333673963 1.16002059645e-12 1.3844240206e-11 -0.0680645352684 -1.34224954179e-11 -1.15803204533e-12)
(0 0 0 -0.167038444964 -4.42280796269e-13 1.41672531688e-11 -0.068187172817 -1.35290683389e-11 4.44062891907e-13)
(0 0 0 -0.180612869369 -1.99620139588e-12 1.44251654521e-11 -0.0681528111108 -1.35273333858e-11 1.99816429137e-12)
(0 0 0 -0.195223281398 -3.49577135628e-12 1.46162932939e-11 -0.067954266524 -1.34340091008e-11 3.49846583748e-12)
(0 0 0 -0.211041925676 -4.94013426692e-12 1.47450714982e-11 -0.0675897428203 -1.32576986974e-11 4.94094065101e-12)
(0 0 0 -0.228249980786 -6.32325759933e-12 1.48180715962e-11 -0.0670625007756 -1.30048944313e-11 6.32229306191e-12)
(0 0 0 -0.247041090165 -7.64417581628e-12 1.48345554441e-11 -0.0663803399913 -1.26874195726e-11 7.64242581935e-12)
(0 0 0 -0.267625631514 -8.8995012265e-12 1.47971602041e-11 -0.0655549245895 -1.23128276012e-11 8.89784070022e-12)
(-6.5023332683e-15 -9.46214025069e-26 -4.73107012534e-26 -0.290235984757 -1.00865990533e-11 1.47056416163e-11 -0.0646009946303 -1.18895435475e-11 1.00908697655e-11)
(0 0 0 -0.315133098596 -1.12196451876e-11 1.45602627171e-11 -0.0635355118757 -1.14243924066e-11 1.12172713198e-11)
(7.14308061423e-15 5.19727517838e-26 5.19727517838e-26 -0.342614721521 -1.22853715554e-11 1.43571923653e-11 -0.0623767906178 -1.09261461466e-11 1.22797652252e-11)
(-7.48675661022e-15 -5.44733237637e-26 -5.44733237637e-26 -0.373025760997 -1.32747283265e-11 1.40935997477e-11 -0.0611436630094 -1.04007081183e-11 1.32788494538e-11)
(0 0 0 -0.406771386491 -1.42089903037e-11 1.37637358396e-11 -0.0598547202654 -9.85491118413e-12 1.42124184245e-11)
(8.22451015654e-15 5.98411872964e-26 5.98411872964e-26 -0.444333718971 -1.50869588126e-11 1.33619461059e-11 -0.0585276616637 -9.29339287227e-12 1.50804221387e-11)
(8.62021711687e-15 6.27203343674e-26 1.25440668735e-25 -0.486293281963 -1.58928615649e-11 1.2878458041e-11 -0.0571787706507 -8.72240983698e-12 1.5884220219e-11)
(0 0 0 -0.533356879466 -1.6623530156e-11 1.22999881088e-11 -0.0558225251577 -8.1487577857e-12 1.66218559506e-11)
(0 0 0 -0.586394284921 -1.72892724198e-11 1.1614560407e-11 -0.0544713376183 -7.57491984677e-12 1.72926505993e-11)
(0 0 0 -0.646487193019 -1.78907916789e-11 1.08069742304e-11 -0.0531354115974 -7.00297253287e-12 1.78946141859e-11)
(0 0 0 -0.714995482843 -1.84221739068e-11 9.85257058344e-12 -0.0518226943199 -6.43976767309e-12 1.84256300864e-11)
(0 0 0 -0.793648265834 -1.88832585382e-11 8.72400246512e-12 -0.0505389004324 -5.88877586626e-12 1.88838678173e-11)
(0 0 0 -0.884670910584 -1.92654843351e-11 7.39009311413e-12 -0.0492875782868 -5.34976292353e-12 1.92655062984e-11)
(0 0 -8.71496220059e-26 -0.990964992555 -1.9564744397e-11 5.80578054664e-12 -0.0480701860238 -4.82597926165e-12 1.95665559947e-11)
(0 0 0 -1.11636705203 -1.97805995752e-11 3.91264574505e-12 -0.046886136857 -4.31969400195e-12 1.97813333683e-11)
(0 0 0 -1.26602577659 -1.99028330758e-11 1.63267584768e-12 -0.04573275535 -3.83247616001e-12 1.99029464552e-11)
(0 0 0 -1.44695753598 -1.99216030589e-11 -1.14234060521e-12 -0.0446050465735 -3.36698851151e-12 1.99223317654e-11)
(0 0 0 -1.66886696464 -1.9825966603e-11 -4.56092025859e-12 -0.0434950886404 -2.92374425806e-12 1.98274339039e-11)
(0 0 0 -1.9453415976 -1.96014903793e-11 -8.83489521746e-12 -0.0423906458178 -2.50394330801e-12 1.96024429692e-11)
(0 0 0 -2.29549195049 -1.92267634093e-11 -1.42689519899e-11 -0.04127208951 -2.10958682699e-12 1.92254885583e-11)
(0 0 0 -2.74579049983 -1.86673604568e-11 -2.12971155425e-11 -0.0401054705321 -1.74166019339e-12 1.86673514067e-11)