/*--------------------------------*- C++ -*----------------------------------*\
| =========                 |                                                 |
| \\      /  F ield         | OpenFOAM: The Open Source CFD Toolbox           |
|  \\    /   O peration     | Version:  3.0.1                                 |
|   \\  /    A nd           | Web:      www.OpenFOAM.org                      |
|    \\/     M anipulation  |                                                 |
\*---------------------------------------------------------------------------*/
FoamFile
{
    version     2.0;
    format      ascii;
    class       volVectorField;
    location    "50000";
    object      grad(p);
}
// * * * * * * * * * * * * * * * * * * * * * * * * * * * * * * * * * * * * * //

dimensions      [0 1 -2 0 0 0 0];

internalField   nonuniform List<vector> 
2500
(
(0 3.56508282999e-14 3.00748799232e-14)
(0 7.69760298171e-14 1.62789969969e-14)
(0 5.96487556805e-14 6.01798397879e-15)
(0 3.18401130845e-14 5.5729312933e-15)
(0 1.83554597075e-14 8.02129630734e-15)
(3.02708286213e-28 -1.10185078336e-14 4.40959484832e-15)
(1.58636265299e-28 -5.25951923395e-14 1.01392433541e-14)
(0 -5.90413988271e-14 1.35893588664e-14)
(0 -5.04383109774e-14 7.56877185709e-15)
(0 -5.70514152008e-14 1.44193947134e-15)
(0 -5.93598186191e-14 3.05450044639e-15)
(0 -6.21351790222e-14 2.56576814389e-15)
(-6.57205937199e-30 -5.61534725975e-14 2.71637287812e-15)
(0 -4.9645898004e-14 2.00345649818e-15)
(0 -3.84257033083e-14 3.23464065226e-15)
(0 -2.20337653647e-14 3.1324305437e-15)
(0 -8.34696713422e-15 2.05868710321e-15)
(0 8.04155785244e-15 2.18818367913e-15)
(0 3.26859588675e-14 6.07178167015e-15)
(0 6.56617901085e-14 6.16876875643e-15)
(0 9.75670758551e-14 5.68277501351e-15)
(0 1.29059443062e-13 3.49182362105e-15)
(0 1.58958600779e-13 2.49002340972e-15)
(0 1.86591324737e-13 -3.97832216469e-16)
(0 2.14013740776e-13 -5.82878556572e-16)
(0 2.42907102639e-13 -2.48436785607e-15)
(0 2.7345814981e-13 -3.42000829253e-15)
(0 3.04043565654e-13 -4.83870792813e-15)
(0 3.34055449679e-13 -5.29701518838e-15)
(0 3.62048707375e-13 -6.67415998981e-15)
(0 3.84836077753e-13 -8.46525816069e-15)
(0 4.07587585813e-13 -9.24385456897e-15)
(0 4.30903421756e-13 -1.04916617204e-14)
(0 4.53081143437e-13 -1.14351573106e-14)
(0 4.71632196085e-13 -1.2724511623e-14)
(0 4.85038893397e-13 -1.37111141941e-14)
(0 4.94562507837e-13 -1.46903707365e-14)
(0 4.99929594633e-13 -1.54107936122e-14)
(0 4.99443448605e-13 -1.63535515323e-14)
(0 4.91261002309e-13 -1.72127467186e-14)
(0 4.7254975541e-13 -1.81047188351e-14)
(0 4.40231842784e-13 -1.87472634329e-14)
(0 3.91811365531e-13 -1.93725582425e-14)
(0 3.23890342259e-13 -1.98359374757e-14)
(0 2.41836633799e-13 -2.02331196351e-14)
(0 1.64641406851e-13 -2.05089439053e-14)
(0 1.14036142426e-13 -2.06854037038e-14)
(0 9.72797937104e-14 -2.08155283224e-14)
(0 9.57033057219e-14 -2.09474153611e-14)
(0 4.72043341303e-14 -2.10756665827e-14)
(0 2.18549453736e-14 5.8779619765e-14)
(0 5.24254443768e-14 3.69369212361e-14)
(0 4.84051444811e-14 1.59692772056e-14)
(0 3.41702406122e-14 1.22883173814e-14)
(0 1.68159211796e-14 8.69806541267e-15)
(1.58636265298e-28 -8.12990677128e-15 7.02760652336e-15)
(0 -4.0774159189e-14 1.04004310841e-14)
(-1.74268464039e-28 -6.28331200027e-14 1.93901207739e-14)
(0 -6.77266925172e-14 1.55280666941e-14)
(9.57205387523e-29 -6.35127761723e-14 1.42793042283e-14)
(0 -5.76802792093e-14 1.31790953247e-14)
(2.62882374876e-29 -6.26645426792e-14 1.18971341574e-14)
(-1.72206543655e-30 -5.7153891731e-14 1.3672383553e-14)
(0 -4.86309287595e-14 1.27938056267e-14)
(0 -3.63551127759e-14 1.39118047663e-14)
(0 -2.44039182997e-14 1.40061215296e-14)
(0 -1.02451273671e-14 1.31002141871e-14)
(0 1.69494384037e-14 1.18730474124e-14)
(0 4.15451587784e-14 1.48145201229e-14)
(0 6.4700942822e-14 1.4449150644e-14)
(0 9.07724082459e-14 1.35459737047e-14)
(0 1.20764072762e-13 1.13968667861e-14)
(0 1.4815109351e-13 9.10593598492e-15)
(9.24037133872e-29 1.77926001551e-13 5.32758955747e-15)
(0 2.07594996598e-13 2.38464058641e-15)
(0 2.34004603404e-13 -3.61798483071e-16)
(0 2.6561509113e-13 -4.58534204723e-15)
(0 2.97599642417e-13 -7.30364374819e-15)
(-4.67509275751e-28 3.2729205262e-13 -1.03960658445e-14)
(-4.90002612226e-28 3.49917558087e-13 -1.41556919761e-14)
(0 3.74650078618e-13 -1.75906220538e-14)
(0 3.99043793389e-13 -2.16058249432e-14)
(0 4.21303664107e-13 -2.4808333377e-14)
(0 4.42757758774e-13 -2.8132991541e-14)
(0 4.60677555698e-13 -3.18197047688e-14)
(0 4.75091351823e-13 -3.53271062126e-14)
(0 4.855795314e-13 -3.87400505075e-14)
(-1.42722911664e-27 4.90654486399e-13 -4.16969372059e-14)
(0 4.88955365895e-13 -4.48378771303e-14)
(0 4.80561767832e-13 -4.75529399015e-14)
(0 4.62764944229e-13 -5.02683409758e-14)
(0 4.31728770045e-13 -5.25670128407e-14)
(0 3.8418291199e-13 -5.45182127063e-14)
(0 3.17559475591e-13 -5.62500428141e-14)
(0 2.36659962485e-13 -5.75035929794e-14)
(0 1.60998506885e-13 -5.83931642455e-14)
(0 1.11443773946e-13 -5.89471528081e-14)
(0 9.4949081288e-14 -5.93469035199e-14)
(0 9.32791013086e-14 -5.97328138571e-14)
(0 4.59806950268e-14 -6.00926019602e-14)
(0 1.41775150081e-14 5.66388152598e-14)
(0 3.40413829989e-14 4.22911814611e-14)
(0 3.43069166958e-14 2.5437628541e-14)
(0 2.41449746429e-14 1.84861374757e-14)
(0 1.2417389747e-14 8.4788260886e-15)
(0 -8.73896679962e-15 6.09954006923e-15)
(1.74268464042e-28 -3.66115976836e-14 4.60513420137e-15)
(0 -5.29647690676e-14 1.45752506435e-14)
(0 -5.80870447045e-14 1.93884465729e-14)
(0 -6.06854582799e-14 2.61516070233e-14)
(0 -6.28418162832e-14 2.36487862024e-14)
(0 -6.12761395426e-14 2.36991124141e-14)
(0 -5.48324765406e-14 2.70110885185e-14)
(0 -4.91076393623e-14 2.6791862247e-14)
(0 -3.61920203926e-14 2.72947568997e-14)
(0 -2.37178612776e-14 2.52565629851e-14)
(0 -1.26664165055e-14 2.58728972393e-14)
(0 1.22059070417e-14 2.63743823814e-14)
(0 3.85191403101e-14 2.41938880947e-14)
(0 6.27011090602e-14 2.23852211669e-14)
(2.62859162293e-30 8.99025779291e-14 1.99232867034e-14)
(0 1.17566667665e-13 1.75292242356e-14)
(-9.24037133858e-29 1.42462586058e-13 1.39317090224e-14)
(0 1.67782501334e-13 1.10828112544e-14)
(0 1.9735030165e-13 6.55209771873e-15)
(-2.12786420954e-28 2.21358674224e-13 2.82071048695e-15)
(2.23024242567e-28 2.51251866099e-13 -2.05422169106e-15)
(0 2.84454100097e-13 -6.80906556489e-15)
(0 3.09880668878e-13 -1.36110407888e-14)
(-5.13578173644e-28 3.35316772663e-13 -1.90354820119e-14)
(-5.38288029205e-28 3.55877314003e-13 -2.44821227389e-14)
(0 3.78394230544e-13 -3.02079732776e-14)
(0 4.03079535154e-13 -3.59736225966e-14)
(0 4.2175360788e-13 -4.19042061915e-14)
(0 4.3800796822e-13 -4.78230462588e-14)
(0 4.51179534726e-13 -5.370741373e-14)
(0 4.61969236376e-13 -5.92448704521e-14)
(-1.4958975826e-27 4.67137562001e-13 -6.49319814568e-14)
(0 4.66462511312e-13 -6.99619370428e-14)
(0 4.59127886457e-13 -7.46687289952e-14)
(0 4.41538991302e-13 -7.90687129215e-14)
(0 4.12690677908e-13 -8.31253120006e-14)
(0 3.66786726051e-13 -8.6633261124e-14)
(0 3.02686514464e-13 -8.95769421442e-14)
(0 2.25867237359e-13 -9.17822493619e-14)
(0 1.53384180884e-13 -9.32844098083e-14)
(0 1.06224778089e-13 -9.42512776718e-14)
(0 9.05086229131e-14 -9.48987136063e-14)
(0 8.8965204055e-14 -9.55153561461e-14)
(-1.31452794742e-27 4.38730190131e-14 -9.60856842073e-14)
(0 8.44189168435e-15 4.86020453493e-14)
(0 2.24410092895e-14 3.93290730973e-14)
(0 2.47265823835e-14 3.42116688295e-14)
(0 1.62697499857e-14 2.88065872709e-14)
(0 3.5114706061e-15 2.23722681064e-14)
(0 -1.24922610036e-14 1.62456395988e-14)
(0 -3.02718676783e-14 1.67052628273e-14)
(0 -4.42602589242e-14 2.32457679415e-14)
(0 -5.22301944187e-14 2.72576757828e-14)
(0 -5.78946490686e-14 3.0007961945e-14)
(0 -6.1321582862e-14 3.01164133651e-14)
(0 -5.74720563601e-14 3.37278375815e-14)
(0 -5.2342599502e-14 3.46150604758e-14)
(0 -4.81602726773e-14 3.4456681582e-14)
(0 -3.90865032407e-14 3.52371187198e-14)
(0 -2.68192418186e-14 3.27528423617e-14)
(0 -8.2527284459e-15 3.45756505667e-14)
(0 1.32874794157e-14 3.54582929867e-14)
(0 3.31577314499e-14 3.28630673627e-14)
(0 5.53001760266e-14 3.02291103351e-14)
(0 7.96815572659e-14 2.7690730711e-14)
(0 1.06253924063e-13 2.36804645786e-14)
(0 1.31812751762e-13 1.82527293582e-14)
(0 1.5801395249e-13 1.50563547876e-14)
(0 1.84478394786e-13 9.9376061302e-15)
(0 2.08565623056e-13 4.03716812522e-15)
(0 2.359021079e-13 -1.01913139634e-15)
(0 2.60288127512e-13 -7.82414881762e-15)
(0 2.8606535329e-13 -1.51599788224e-14)
(0 3.11470113448e-13 -2.30603850604e-14)
(0 3.33073808809e-13 -3.12246419991e-14)
(0 3.54226194944e-13 -3.8874721784e-14)
(0 3.7365581247e-13 -4.71470382164e-14)
(0 3.92105064677e-13 -5.51372685356e-14)
(0 4.07763215749e-13 -6.3116505657e-14)
(0 4.21414891943e-13 -7.07856744161e-14)
(-7.47948791208e-28 4.30283271178e-13 -7.81978976989e-14)
(0 4.35418353152e-13 -8.5566030737e-14)
(0 4.36318668655e-13 -9.22915002249e-14)
(0 4.28990890777e-13 -9.89663758065e-14)
(0 4.12563229045e-13 -1.05115306456e-13)
(0 3.84736188491e-13 -1.1077312015e-13)
(0 3.42172835227e-13 -1.15874590005e-13)
(0 2.8244912787e-13 -1.19855456146e-13)
(0 2.10210977521e-13 -1.22948355763e-13)
(0 1.42544940979e-13 -1.25009234392e-13)
(1.19661239552e-27 9.87923415735e-14 -1.26306619573e-13)
(0 8.45168238465e-14 -1.27211191932e-13)
(0 8.3017945991e-14 -1.28054679166e-13)
(0 4.09305790848e-14 -1.28836088225e-13)
(0 5.86054208221e-15 5.1233513282e-14)
(0 2.07968277192e-14 4.24378062712e-14)
(0 2.40518083675e-14 4.28546035953e-14)
(0 1.21921831775e-14 4.072941907e-14)
(0 -8.47151200286e-16 3.61909034395e-14)
(0 -1.48277447628e-14 3.28823514515e-14)
(0 -2.82849528737e-14 3.18908941299e-14)
(0 -4.01929443204e-14 3.42941203228e-14)
(0 -4.94979341242e-14 3.65113993832e-14)
(0 -5.6934858432e-14 3.81708610701e-14)
(0 -5.7610197735e-14 3.944237955e-14)
(0 -5.47913515279e-14 3.92475398343e-14)
(0 -5.3667826599e-14 3.84551750538e-14)
(0 -4.80573141751e-14 3.61638429579e-14)
(0 -3.92420175105e-14 3.92529683644e-14)
(0 -2.48223403081e-14 3.92470240902e-14)
(0 -7.63431437458e-15 4.1459009026e-14)
(0 8.8708489837e-15 3.87939731131e-14)
(0 2.79323829984e-14 3.66632596454e-14)
(0 5.16475460635e-14 3.38644183111e-14)
(-4.62018566928e-29 7.51348008203e-14 3.15548633757e-14)
(0 9.54861925487e-14 2.76505362983e-14)
(1.01509280828e-28 1.21521632573e-13 2.41061931013e-14)
(-1.06393210476e-28 1.46426681848e-13 1.92725463645e-14)
(0 1.67828660178e-13 1.31544890164e-14)
(2.33754637877e-28 1.90725190355e-13 7.4040352264e-15)
(2.45001306123e-28 2.16275359861e-13 9.34728667408e-17)
(0 2.40630802924e-13 -8.10215323085e-15)
(0 2.60550976859e-13 -1.58081300522e-14)
(0 2.80941738969e-13 -2.46151041472e-14)
(0 2.99920037469e-13 -3.56315518758e-14)
(0 3.192416155e-13 -4.52458949044e-14)
(0 3.39675668454e-13 -5.48443538469e-14)
(0 3.56500957414e-13 -6.4621062093e-14)
(0 3.71029730846e-13 -7.42416708425e-14)
(0 3.83554247468e-13 -8.39025028686e-14)
(0 3.92431557251e-13 -9.33622200359e-14)
(0 3.97706401777e-13 -1.02415631051e-13)
(0 3.97271081082e-13 -1.11330412611e-13)
(0 3.89791564169e-13 -1.19741237323e-13)
(0 3.74636122005e-13 -1.2759845829e-13)
(0 3.48791993873e-13 -1.34718298346e-13)
(2.07854295114e-27 3.10350982021e-13 -1.40961894677e-13)
(0 2.56612447726e-13 -1.46018955733e-13)
(0 1.90735076281e-13 -1.49972896625e-13)
(0 1.29398516164e-13 -1.52517902977e-13)
(0 8.97232024512e-14 -1.54123266818e-13)
(-1.31452794754e-27 7.67416278038e-14 -1.55294478374e-13)
(0 7.55484617905e-14 -1.56367482484e-13)
(0 3.72628580156e-14 -1.57344183371e-13)
(-3.02708286213e-28 1.03489701391e-15 7.6141618818e-14)
(-3.17272530597e-28 1.54390280876e-14 6.56495959104e-14)
(0 2.3123048819e-14 6.26802870196e-14)
(0 9.81784239e-15 5.44437344512e-14)
(0 -4.32733907218e-15 4.95034407429e-14)
(0 -1.69471817017e-14 4.6351775689e-14)
(0 -2.8579775895e-14 4.49043924569e-14)
(0 -3.88805430293e-14 4.49626123566e-14)
(0 -4.75491802511e-14 4.60202209924e-14)
(0 -5.42396774028e-14 4.7353334964e-14)
(0 -5.98012279385e-14 4.95673999274e-14)
(1.26897806142e-28 -5.87082883998e-14 4.84147183975e-14)
(6.65016286571e-29 -5.68413987222e-14 4.83790884698e-14)
(0 -4.67772279023e-14 4.74383001087e-14)
(-7.30547750884e-29 -3.4387855525e-14 4.43399237697e-14)
(0 -2.30279558089e-14 4.42123389086e-14)
(0 -9.19904017885e-15 4.38570542745e-14)
(0 4.47598387506e-15 4.78841875507e-14)
(0 2.35892244186e-14 4.71146696218e-14)
(4.6201856692e-29 4.50551957224e-14 4.55730884577e-14)
(0 6.65183631375e-14 4.12308159375e-14)
(1.01509280832e-28 8.95996880358e-14 3.7321333029e-14)
(0 1.12199116412e-13 3.04786140562e-14)
(0 1.31279259506e-13 2.377899293e-14)
(0 1.54054913719e-13 1.65521668053e-14)
(-2.45001306126e-28 1.73416089535e-13 9.09186650987e-15)
(0 1.92344931556e-13 1.25033867636e-15)
(0 2.13631650358e-13 -8.44820904465e-15)
(0 2.34980850345e-13 -1.9346537046e-14)
(-5.91331546329e-28 2.47200075629e-13 -2.95672368994e-14)
(6.1978236034e-28 2.63263020848e-13 -3.99310922415e-14)
(0 2.85859916203e-13 -5.06456562128e-14)
(0 3.01515643683e-13 -6.16933548787e-14)
(0 3.16439938289e-13 -7.30580391032e-14)
(0 3.28929555502e-13 -8.44109325096e-14)
(0 3.39516146313e-13 -9.5959813972e-14)
(0 3.47219062203e-13 -1.07165497707e-13)
(0 3.50929040402e-13 -1.17815332115e-13)
(0 3.50930319177e-13 -1.28411308783e-13)
(0 3.44931302454e-13 -1.38452755129e-13)
(0 3.31474625371e-13 -1.47735752082e-13)
(0 3.08909659851e-13 -1.56177316663e-13)
(0 2.75028434321e-13 -1.63465086396e-13)
(-1.14168247346e-27 2.26390387293e-13 -1.69612513449e-13)
(1.19661239562e-27 1.6792956931e-13 -1.74162910719e-13)
(0 1.14245184952e-13 -1.7725085108e-13)
(0 7.89237730254e-14 -1.79184470585e-13)
(0 6.76370665724e-14 -1.80561648173e-13)
(0 6.68594246239e-14 -1.81837375339e-13)
(0 3.30403746802e-14 -1.83008807185e-13)
(0 -2.65601550362e-15 1.07338580095e-13)
(0 9.79534547893e-15 8.54295510159e-14)
(0 1.43951381639e-14 7.62202582641e-14)
(0 4.32510247081e-16 6.50689448423e-14)
(0 -8.51103729907e-15 6.07449248372e-14)
(0 -1.93794091089e-14 5.75863574634e-14)
(0 -2.96848487745e-14 5.56776662353e-14)
(0 -3.89098515241e-14 5.48342104115e-14)
(0 -4.67117096137e-14 5.46356647512e-14)
(0 -5.26042788332e-14 5.47024745994e-14)
(0 -5.64968338755e-14 5.5545474943e-14)
(0 -5.64763668958e-14 5.55070602633e-14)
(0 -5.51679641046e-14 5.77236878449e-14)
(0 -5.38180892773e-14 6.15882931315e-14)
(0 -4.3726253005e-14 5.81517240865e-14)
(0 -2.55031229865e-14 5.48115969501e-14)
(0 -1.52171786874e-15 5.46717696978e-14)
(0 1.40694985767e-14 5.69385204889e-14)
(0 2.35408760689e-14 5.62899802731e-14)
(0 4.01216113009e-14 5.54166969548e-14)
(0 5.84444625185e-14 4.96732673831e-14)
(0 7.279171534e-14 4.49770753292e-14)
(1.11512121282e-28 9.16873818298e-14 3.56504081554e-14)
(0 1.1399995583e-13 2.9730115662e-14)
(0 1.32139776872e-13 1.9727029854e-14)
(0 1.51641408628e-13 1.06374619166e-14)
(0 1.6908782548e-13 1.15008189657e-15)
(0 1.82729588961e-13 -9.46307263906e-15)
(2.95665773181e-28 1.98612683942e-13 -1.92981127481e-14)
(6.19782360349e-28 2.17259584875e-13 -3.3133395979e-14)
(0 2.31537040427e-13 -4.32077969782e-14)
(0 2.45534006905e-13 -5.57719653432e-14)
(0 2.60018383422e-13 -6.87577256643e-14)
(0 2.71924725616e-13 -8.1326558924e-14)
(0 2.81657381968e-13 -9.42538830403e-14)
(0 2.90525590085e-13 -1.06856591006e-13)
(8.61184797132e-28 2.98761386933e-13 -1.19664836595e-13)
(0 3.02185432524e-13 -1.31757940957e-13)
(0 3.00134465265e-13 -1.44068261811e-13)
(0 2.94514287532e-13 -1.55060783997e-13)
(0 2.83058033982e-13 -1.65471766782e-13)
(0 2.63675407769e-13 -1.74750029598e-13)
(0 2.34188544382e-13 -1.83038800156e-13)
(0 1.93110226823e-13 -1.89952828947e-13)
(-1.25418516834e-27 1.43250013518e-13 -1.95011353966e-13)
(0 9.67338845862e-14 -1.98489424775e-13)
(0 6.71033922306e-14 -2.00690281326e-13)
(0 5.76860876145e-14 -2.02243622277e-13)
(0 5.71321189735e-14 -2.03707787225e-13)
(0 2.82327758684e-14 -2.05063300049e-13)
(-3.3253750642e-28 -1.56607762487e-14 1.02955601007e-13)
(3.48536928077e-28 -8.62719279955e-15 9.46318846566e-14)
(0 6.20103631939e-15 8.14810799676e-14)
(0 -3.60890264096e-15 7.50147001762e-14)
(0 -1.11500884266e-14 7.0506321403e-14)
(0 -2.17551437342e-14 6.7185567657e-14)
(0 -3.12950332295e-14 6.48781488759e-14)
(0 -3.99334425598e-14 6.34834004326e-14)
(0 -4.76454415078e-14 6.24303867569e-14)
(0 -5.31205851263e-14 6.20957645937e-14)
(0 -5.87252731386e-14 6.22915112867e-14)
(0 -5.58484786986e-14 6.26473594433e-14)
(0 -4.88375163909e-14 6.1309365998e-14)
(0 -4.67521813419e-14 6.63217222308e-14)
(0 -4.44560164868e-14 6.96866194952e-14)
(0 -2.82194010792e-14 7.0875403721e-14)
(0 -5.43357016718e-15 6.96017410066e-14)
(0 7.45535702119e-15 6.36105751137e-14)
(0 2.09647067054e-14 6.03672645166e-14)
(0 3.27141180344e-14 5.76919413009e-14)
(1.0639321047e-28 4.65010081078e-14 5.19707348573e-14)
(2.23024242571e-28 6.08878515816e-14 4.70176850708e-14)
(1.16877318931e-28 7.98275382449e-14 4.02352889611e-14)
(-2.45001306117e-28 9.56925871159e-14 3.41371057899e-14)
(0 1.09633829963e-13 2.4735591488e-14)
(0 1.2806959217e-13 1.60457271003e-14)
(0 1.40943761797e-13 5.10847197327e-15)
(0 1.58663807558e-13 -7.08215490861e-15)
(-3.09891180186e-28 1.68025349926e-13 -1.95284062987e-14)
(3.24801016094e-28 1.7723427473e-13 -3.21747764199e-14)
(3.4042821095e-28 1.93308123213e-13 -4.67346649311e-14)
(0 2.03159175844e-13 -5.96555535407e-14)
(0 2.14921045353e-13 -7.36447585367e-14)
(0 2.25771876362e-13 -8.75300061133e-14)
(0 2.33806000188e-13 -1.01798565288e-13)
(0 2.40248436879e-13 -1.15869920155e-13)
(0 2.4543335429e-13 -1.2978608395e-13)
(-9.46046930605e-28 2.46336165269e-13 -1.43572456066e-13)
(9.91564213451e-28 2.46314350957e-13 -1.56649815249e-13)
(0 2.44081419942e-13 -1.68774734193e-13)
(0 2.34315176933e-13 -1.79960020161e-13)
(-1.14168247357e-27 2.18051210497e-13 -1.90164254506e-13)
(0 1.92688203114e-13 -1.98912091528e-13)
(0 1.58546329436e-13 -2.0645581059e-13)
(0 1.17272432217e-13 -2.1206020073e-13)
(-6.88887003481e-28 7.89428647206e-14 -2.1585246421e-13)
(0 5.4448215773e-14 -2.18255848293e-13)
(-7.56770715521e-28 4.69502197681e-14 -2.19997092312e-13)
(0 4.66037939929e-14 -2.21649020274e-13)
(0 2.3064252552e-14 -2.23177696394e-13)
(0 -9.24345225424e-15 9.1531257979e-14)
(0 -6.96060163857e-15 1.09876990841e-13)
(0 -1.01316585286e-15 9.16468555316e-14)
(0 -8.60119217909e-15 8.52157650174e-14)
(0 -1.52521295696e-14 7.89653802934e-14)
(0 -2.44730175853e-14 7.54863110762e-14)
(0 -3.31899258176e-14 7.27854556387e-14)
(0 -4.13405758392e-14 7.13216181737e-14)
(0 -4.81583076915e-14 6.90459277575e-14)
(0 -5.27636657162e-14 6.84825667002e-14)
(0 -5.59743715923e-14 6.87174390825e-14)
(0 -5.76525026999e-14 7.18885368688e-14)
(0 -5.01521436311e-14 7.02227997476e-14)
(0 -4.26929446621e-14 6.96512263626e-14)
(0 -3.7647059577e-14 6.93250493436e-14)
(0 -2.5830898868e-14 7.60696976289e-14)
(0 -1.27012096034e-14 7.26090696824e-14)
(0 -5.67982443216e-16 6.87396852472e-14)
(0 1.37477094175e-14 6.19649625143e-14)
(0 2.52404226549e-14 5.68643306315e-14)
(0 3.87172585532e-14 5.62108343757e-14)
(0 5.00266531103e-14 4.96877305078e-14)
(0 6.57079842584e-14 4.61797156224e-14)
(0 8.08791943486e-14 3.71247988594e-14)
(0 9.18489640268e-14 2.7539514886e-14)
(0 1.05758540268e-13 1.88719784717e-14)
(0 1.12542450156e-13 7.30248812731e-15)
(0 1.19997925736e-13 -4.99343196836e-15)
(0 1.31425446103e-13 -2.0249680284e-14)
(0 1.40556839367e-13 -3.20020663577e-14)
(3.56807279139e-28 1.50764594656e-13 -4.72343428293e-14)
(0 1.62299817421e-13 -6.18362510867e-14)
(0 1.69784845827e-13 -7.64664317857e-14)
(0 1.7643681591e-13 -9.21959104324e-14)
(4.30592398603e-28 1.80999904968e-13 -1.07508021542e-13)
(0 1.86299340078e-13 -1.22816718875e-13)
(0 1.9057705642e-13 -1.37413131806e-13)
(-4.95782106753e-28 1.92208495611e-13 -1.51848638756e-13)
(0 1.92073848442e-13 -1.65272340155e-13)
(0 1.89843579942e-13 -1.7841085873e-13)
(-5.70841236784e-28 1.82392659259e-13 -1.90514473646e-13)
(0 1.70240146348e-13 -2.01776442993e-13)
(-1.25418516833e-27 1.49981686018e-13 -2.11360891215e-13)
(0 1.22026670607e-13 -2.19321404739e-13)
(0 9.0055638766e-14 -2.2530759781e-13)
(0 6.00068477868e-14 -2.29299063358e-13)
(0 4.1305848878e-14 -2.31847062557e-13)
(0 3.54872747446e-14 -2.33726712868e-13)
(0 3.53299324899e-14 -2.35535247593e-13)
(0 1.74988803478e-14 -2.37231955781e-13)
(0 -2.76911576712e-15 1.02206723158e-13)
(-3.82882155009e-28 -9.07357964476e-15 1.05321145184e-13)
(0 -1.21011441826e-14 9.501399341e-14)
(0 -1.36307012741e-14 9.02931609803e-14)
(0 -1.91628774057e-14 8.51410857606e-14)
(0 -2.71085356681e-14 8.24185490851e-14)
(0 -3.50602696147e-14 7.92406899686e-14)
(0 -4.35017908515e-14 7.92601298835e-14)
(0 -5.04035713746e-14 7.35919561768e-14)
(0 -5.34213891393e-14 7.1449042779e-14)
(0 -5.48692401013e-14 7.09705708018e-14)
(0 -5.43656322354e-14 7.21879633797e-14)
(0 -5.15055563406e-14 7.42607158764e-14)
(1.68229863869e-28 -4.76681812744e-14 7.17361149662e-14)
(1.76323929884e-28 -3.56145643784e-14 7.13354972353e-14)
(-1.84807426782e-28 -2.39768280735e-14 7.31100533644e-14)
(0 -1.62108867641e-14 7.07158578497e-14)
(0 -8.88918118814e-15 6.82817868177e-14)
(2.12786420959e-28 2.13206498741e-15 6.3999773059e-14)
(2.23024242564e-28 2.3114947169e-14 5.99738399454e-14)
(0 3.35834703916e-14 5.75175738857e-14)
(2.45001306133e-28 4.24628402119e-14 5.18718762287e-14)
(0 5.52350707428e-14 4.64830241837e-14)
(0 5.81335967291e-14 3.79574703738e-14)
(5.6418675337e-28 7.10373236919e-14 2.95453334148e-14)
(0 8.29430585658e-14 1.76846166251e-14)
(0 8.52721754859e-14 6.12910480124e-15)
(0 9.0983398972e-14 -6.96898430371e-15)
(0 9.90078850027e-14 -1.90849798226e-14)
(0 1.04606255127e-13 -3.33068106693e-14)
(0 1.09434430189e-13 -4.64864460175e-14)
(0 1.17110458951e-13 -6.2093202319e-14)
(0 1.21147291283e-13 -7.77076704347e-14)
(0 1.25348964913e-13 -9.39679694725e-14)
(0 1.29863846843e-13 -1.09517227172e-13)
(0 1.33914269069e-13 -1.25462520676e-13)
(0 1.37193641884e-13 -1.4064354629e-13)
(0 1.37596160222e-13 -1.56212549637e-13)
(1.08927408344e-27 1.37577753818e-13 -1.70644060959e-13)
(0 1.35842620595e-13 -1.84482645913e-13)
(0 1.29322568132e-13 -1.97333383927e-13)
(0 1.20005863006e-13 -2.09059656446e-13)
(0 1.06199812207e-13 -2.19433220531e-13)
(0 8.65260004134e-14 -2.27714231398e-13)
(0 6.33493518563e-14 -2.34081411384e-13)
(0 4.19074708084e-14 -2.38259091391e-13)
(0 2.81376211731e-14 -2.40981269466e-13)
(0 2.39101521108e-14 -2.42983754194e-13)
(0 2.36663126821e-14 -2.44961831657e-13)
(0 1.16931569275e-14 -2.46816036617e-13)
(0 -6.90590411469e-15 1.01760165302e-13)
(0 -1.2094643941e-14 9.85866395109e-14)
(0 -1.19970635413e-14 9.49982514212e-14)
(0 -1.61158570583e-14 9.2831611333e-14)
(0 -2.14703720418e-14 8.76640775519e-14)
(0 -2.93797590374e-14 8.91673521383e-14)
(0 -3.58922092615e-14 8.26257672205e-14)
(0 -4.65826297953e-14 7.90560226832e-14)
(0 -5.5465647628e-14 7.48405773176e-14)
(0 -5.53168741529e-14 7.25446531192e-14)
(0 -5.51261478845e-14 7.10031447569e-14)
(0 -5.39486514318e-14 7.1154369858e-14)
(0 -5.08440813752e-14 6.97918614374e-14)
(0 -4.63116069313e-14 7.07330515731e-14)
(0 -3.57926648049e-14 7.34322781205e-14)
(-1.93699091294e-28 -2.66752442591e-14 6.86190471432e-14)
(0 -1.94184625989e-14 6.76187041066e-14)
(0 -1.05681980579e-14 6.53262144786e-14)
(0 8.33137935843e-16 6.44925312917e-14)
(0 1.50679184028e-14 6.16205784248e-14)
(0 2.50850239973e-14 5.60282001089e-14)
(0 3.07415833747e-14 5.38855549412e-14)
(2.69144014608e-28 4.00515987823e-14 4.69936871116e-14)
(0 4.78891081585e-14 3.89095694997e-14)
(0 5.06510981597e-14 3.25449705843e-14)
(0 5.62013096754e-14 1.97754182829e-14)
(-3.24801016105e-28 5.76649421163e-14 7.45231964508e-15)
(0 6.13193360034e-14 -3.76000777164e-15)
(0 6.69771816781e-14 -1.62224721663e-14)
(0 7.04421706169e-14 -3.14750491715e-14)
(0 7.3265265359e-14 -4.46911603859e-14)
(0 7.44529692549e-14 -6.02686105505e-14)
(0 7.57279474086e-14 -7.65951072461e-14)
(0 7.81424854106e-14 -9.25986771412e-14)
(4.73023465289e-28 7.90010927773e-14 -1.09044729009e-13)
(4.95782106764e-28 8.0759830988e-14 -1.24901047944e-13)
(-5.19635737699e-28 8.12430757847e-14 -1.40754068648e-13)
(0 8.05358775993e-14 -1.56524259048e-13)
(0 8.17108999701e-14 -1.71474227322e-13)
(0 8.06754907414e-14 -1.86175745452e-13)
(0 7.70054305801e-14 -1.99647399212e-13)
(0 7.09409951586e-14 -2.12155301143e-13)
(0 6.22632607877e-14 -2.22829903736e-13)
(0 4.98883912482e-14 -2.31671472412e-13)
(3.78385357785e-28 3.57267331644e-14 -2.3826124737e-13)
(0 2.27599954385e-14 -2.42763319908e-13)
(0 1.45296765719e-14 -2.45644610698e-13)
(0 1.17654537355e-14 -2.47805233334e-13)
(0 1.14082063196e-14 -2.49934798345e-13)
(0 5.64256700038e-15 -2.51938615073e-13)
(0 -4.94264184006e-15 1.02269707603e-13)
(-4.20611799801e-28 -1.35467444473e-14 1.03502960108e-13)
(0 -1.59349428351e-14 9.43036009345e-14)
(0 -1.89515021077e-14 9.23750432071e-14)
(0 -2.18538638054e-14 8.62455582569e-14)
(-5.07591224567e-28 -3.12506623284e-14 8.74624089135e-14)
(0 -4.32283077225e-14 8.37293143876e-14)
(0 -5.02624205528e-14 7.8370529667e-14)
(0 -5.63870814336e-14 7.3568609908e-14)
(0 -5.70691222459e-14 7.20116318886e-14)
(0 -5.62005543849e-14 6.92462239357e-14)
(0 -5.56233288002e-14 7.10192594205e-14)
(3.52647859763e-28 -5.1869318532e-14 6.58827668976e-14)
(0 -4.34640952605e-14 6.41110348245e-14)
(-3.87398182581e-28 -3.83234346865e-14 6.30396065532e-14)
(0 -3.11745584129e-14 6.27293675877e-14)
(0 -2.06625976688e-14 6.0759824062e-14)
(0 -1.31638342448e-14 6.23636791066e-14)
(0 -3.26852485729e-15 6.437591461e-14)
(0 1.0026681221e-14 6.05945151029e-14)
(0 2.12291169632e-14 5.66944284427e-14)
(0 2.69403409727e-14 5.20344305363e-14)
(0 2.87736471266e-14 4.82857231531e-14)
(0 3.1731369237e-14 4.02014372134e-14)
(0 3.37233215644e-14 3.29135655361e-14)
(0 3.21244508628e-14 2.33035629658e-14)
(0 3.52871879669e-14 1.26174350794e-14)
(0 3.81368739888e-14 2.17300306582e-15)
(0 3.42957469027e-14 -1.0510058334e-14)
(0 3.52257544048e-14 -2.47692534085e-14)
(0 3.56284264087e-14 -3.89486071725e-14)
(0 3.14820329589e-14 -5.48174784925e-14)
(0 3.02649770145e-14 -7.07680992899e-14)
(-4.73023465282e-28 2.97162719176e-14 -8.72044993753e-14)
(0 3.00839619826e-14 -1.03917112332e-13)
(0 3.11730692464e-14 -1.20116710833e-13)
(0 2.97900229336e-14 -1.36611893276e-13)
(0 2.82958139748e-14 -1.52656784832e-13)
(0 2.70426581024e-14 -1.68408059474e-13)
(0 2.58759710221e-14 -1.83357075979e-13)
(0 2.30692367412e-14 -1.97891693091e-13)
(3.44443501769e-28 2.07200750197e-14 -2.1073614454e-13)
(0 1.85950317843e-14 -2.22074431282e-13)
(0 1.40010587452e-14 -2.31220324924e-13)
(0 8.7634883946e-15 -2.38048594953e-13)
(0 3.85699036813e-15 -2.42697595151e-13)
(0 8.60063228833e-16 -2.45730578859e-13)
(0 -4.93603131132e-16 -2.48053476369e-13)
(0 -9.63337622614e-16 -2.50329067539e-13)
(0 -5.34600682595e-16 -2.52474123786e-13)
(-8.41223599615e-28 -6.08031615604e-15 9.12151397748e-14)
(-4.40848751758e-28 -1.71759438031e-14 9.09188045043e-14)
(0 -1.91913904745e-14 8.80645876963e-14)
(0 -2.17182829958e-14 8.35302153914e-14)
(0 -2.48210298263e-14 8.17978185559e-14)
(-5.32013029257e-28 -3.14058099997e-14 7.9168740989e-14)
(0 -4.32815657444e-14 7.79892544273e-14)
(0 -5.49673032971e-14 7.56824899613e-14)
(0 -6.08392748305e-14 6.97817985875e-14)
(0 -5.92669092064e-14 7.1556979509e-14)
(0 -5.60011686886e-14 6.35115039466e-14)
(-3.52647859763e-28 -5.74703740862e-14 6.03860835207e-14)
(0 -5.78846125775e-14 5.86973511091e-14)
(0 -4.9214876957e-14 5.66738401659e-14)
(4.06037123316e-28 -3.7443054345e-14 5.4614282235e-14)
(0 -2.96158214821e-14 5.48729098177e-14)
(2.23024242566e-28 -1.98237602388e-14 5.66449266052e-14)
(0 -5.99106160323e-15 5.83256095997e-14)
(-4.90002612257e-28 -1.94174104131e-15 6.00748319101e-14)
(0 3.90237996416e-15 5.92217902704e-14)
(0 1.21150306208e-14 5.57228031532e-14)
(0 1.74565824273e-14 5.05373338724e-14)
(0 1.99804906551e-14 4.57583851986e-14)
(0 2.07828860105e-14 4.05870145749e-14)
(-3.24801016093e-28 1.93632275937e-14 3.43422964216e-14)
(0 1.67620929596e-14 2.75625666009e-14)
(3.56807279158e-28 1.48707746316e-14 1.91152555739e-14)
(0 1.22197612911e-14 8.0259924289e-15)
(-3.91967475927e-28 6.87866515017e-15 -4.09538797454e-15)
(0 4.09022633784e-15 -1.63000703364e-14)
(-2.15296199299e-28 -2.52273092513e-16 -3.12194272974e-14)
(0 -7.09859574953e-15 -4.59018543061e-14)
(0 -1.12792483172e-14 -6.129925142e-14)
(0 -1.51663602205e-14 -7.7603486497e-14)
(0 -1.79774811264e-14 -9.39721563754e-14)
(0 -2.02085186957e-14 -1.113271137e-13)
(-5.70841236722e-28 -2.40145459482e-14 -1.28789228461e-13)
(0 -2.72544008776e-14 -1.45630956752e-13)
(0 -2.74120704797e-14 -1.62028247442e-13)
(-3.28631986881e-28 -2.91850853801e-14 -1.77586603628e-13)
(0 -2.98321325183e-14 -1.9205919045e-13)
(-3.61015758183e-28 -2.79761937582e-14 -2.05127611709e-13)
(0 -2.5424203888e-14 -2.16774660976e-13)
(0 -2.1729086887e-14 -2.26436972668e-13)
(0 -1.81469293696e-14 -2.33597667015e-13)
(2.1783558005e-28 -1.50152887766e-14 -2.38366147785e-13)
(0 -1.31173454681e-14 -2.41530909914e-13)
(0 -1.3182127161e-14 -2.43955945653e-13)
(2.50814884695e-28 -1.37182320741e-14 -2.46366764365e-13)
(0 -6.84607560737e-15 -2.48652449238e-13)
(0 -5.16347703645e-15 7.36808908273e-14)
(0 -1.55840993045e-14 7.49800426698e-14)
(0 -2.06208088575e-14 7.68706910287e-14)
(0 -2.30476854592e-14 7.14525052745e-14)
(0 -2.49302658617e-14 7.19675786404e-14)
(0 -3.3911896963e-14 6.79659824616e-14)
(0 -4.58196322191e-14 7.1851875865e-14)
(0 -5.6883528184e-14 6.25286315291e-14)
(0 -5.97855785071e-14 6.16421651096e-14)
(-3.36459727737e-28 -6.26866068016e-14 6.11647404451e-14)
(0 -6.60240532319e-14 5.4066786475e-14)
(0 -6.01643930081e-14 4.62956286905e-14)
(0 -5.57801706376e-14 4.94876556718e-14)
(0 -4.79102428159e-14 4.97047858215e-14)
(0 -4.01575579242e-14 5.13726919451e-14)
(2.23024242564e-28 -2.87786003199e-14 5.2076527955e-14)
(-4.67509275716e-28 -1.65555633904e-14 5.11058039222e-14)
(0 -8.59382269982e-15 5.06105139591e-14)
(0 -2.12599351055e-15 4.97344222374e-14)
(0 3.75283425802e-15 5.05646333598e-14)
(0 8.39706204468e-15 4.92323165827e-14)
(0 1.16584701421e-14 4.69518923055e-14)
(0 1.28018659627e-14 4.43430141182e-14)
(0 1.24839728647e-14 4.03378559904e-14)