/*--------------------------------*- C++ -*----------------------------------*\
| =========                 |                                                 |
| \\      /  F ield         | OpenFOAM: The Open Source CFD Toolbox           |
|  \\    /   O peration     | Version:  3.0.1                                 |
|   \\  /    A nd           | Web:      www.OpenFOAM.org                      |
|    \\/     M anipulation  |                                                 |
\*---------------------------------------------------------------------------*/
FoamFile
{
    version     2.0;
    format      ascii;
    class       volVectorField;
    location    "50000";
    object      grad(k);
}
// * * * * * * * * * * * * * * * * * * * * * * * * * * * * * * * * * * * * * //

dimensions      [0 1 -2 0 0 0 0];

internalField   nonuniform List<vector> 
2500
(
(0 0.00019031789636 0.000190307082902)
(0 0.000552683891343 0.000190230840696)
(0 0.000873572023379 0.000190089467839)
(0 0.00114726435781 0.0001898498043)
(0 0.00137504529556 0.000189405062009)
(2.08019550322e-17 0.00156250297516 0.000188578172503)
(0 0.00171713169077 0.000187147520364)
(0 0.0018467203096 0.000184879544877)
(0 0.00195846010662 0.000181558514781)
(0 0.00205853520919 0.000177009695288)
(0 0.00215198456325 0.00017111521279)
(0 0.00224269827341 0.000163823027468)
(0 0.00233347303593 0.000155149694805)
(0 0.00242609007043 0.000145177693624)
(0 0.00252139950613 0.000134048204935)
(0 0.00261940453502 0.000121950378896)
(0 0.00271934192066 0.000109108257941)
(0 0.00281975573068 9.57665871071e-05)
(0 0.00291856016385 8.21767036105e-05)
(0 0.00301308594632 6.85835579063e-05)
(0 0.00310010333245 5.52146832517e-05)
(0 0.00317581329412 4.22716546096e-05)
(0 0.00323579679874 2.99242723613e-05)
(0 0.00327490976337 1.83074418856e-05)
(0 0.00328710777752 7.52049749979e-06)
(0 0.00326517916626 -2.37143241326e-06)
(0 0.00320035634039 -1.13344984033e-05)
(0 0.00308176200048 -1.93621388438e-05)
(0 0.00289562618833 -2.6470482648e-05)
(0 0.00262417866854 -3.26935361797e-05)
(0 0.00224407283989 -3.80784488215e-05)
(0 0.00172412347045 -4.26810540496e-05)
(0 0.00102202796492 -4.65617725391e-05)
(0 7.95722261654e-05 -4.97818487611e-05)
(0 -0.00118441978492 -5.23997532665e-05)
(0 -0.00288444389394 -5.44673570621e-05)
(0 -0.00518330280146 -5.60251119659e-05)
(0 -0.00831279761202 -5.70946915046e-05)
(0 -0.0125987393929 -5.76659453106e-05)
(0 -0.0184787539164 -5.76716224332e-05)
(0 -0.0264673602064 -5.69366358371e-05)
(0 -0.0369252931605 -5.50786895627e-05)
(0 -0.0492862452686 -5.13421830567e-05)
(0 -0.0603797265594 -4.44810532551e-05)
(0 -0.0633763404025 -3.33913044047e-05)
(0 -0.0526905840718 -1.95785794051e-05)
(0 -0.0326186866699 -8.13671452822e-06)
(0 -0.0142083001637 -2.19391887294e-06)
(0 -0.00294237895244 -3.50668681036e-07)
(0 -0.00197585928188 -4.24734154283e-07)
(0 0.000190241654155 0.000552654606405)
(0 0.000552459474389 0.000552430132195)
(0 0.000873160568373 0.000552028065019)
(0 0.00114648900333 0.000551374935522)
(0 0.00137353533716 0.000550186220478)
(2.18028022853e-17 0.00155969552317 0.00054797043295)
(0 0.00171231544206 0.00054409929934)
(0 0.00183909907236 0.000537899737516)
(0 0.00194722088392 0.000528739432961)
(2.63114613438e-17 0.00204291309885 0.000516094626564)
(0 0.00213132065298 0.000499597721123)
(2.89042227913e-17 0.00221648807726 0.00047906561526)
(3.02948955405e-17 0.00230140340803 0.000454510512634)
(0 0.00238806287552 0.000426135214586)
(0 0.00247754096398 0.00039431520054)
(0 0.00257006010674 0.000359570217077)
(0 0.00266505770904 0.000322528502306)
(0 0.00276124843887 0.000283887017729)
(0 0.00285667852619 0.000244371045294)
(0 0.00294876707016 0.00020469620604)
(0 0.00303432752866 0.000165535392446)
(0 0.00310956072161 0.000127492365127)
(0 0.003170008688 9.10829433193e-05)
(0 0.00321045624025 5.67239375998e-05)
(0 0.00322476347034 2.47293018841e-05)
(0 0.00320560699629 -4.68750631634e-06)
(0 0.00314409923047 -3.14062586949e-05)
(0 0.00302924175141 -5.53891926692e-05)
(-3.21269927988e-17 0.00284714848831 -7.66680981416e-05)
(0 0.00257994312302 -9.53304346279e-05)
(0 0.00220418703216 -0.000111505410146)
(0 0.00168862040434 -0.000125350661257)
(0 0.000990886880208 -0.000137039859666)
(0 5.27438601968e-05 -0.000146751221059)
(0 -0.00120698036012 -0.000154656453802)
(0 -0.00290272975132 -0.000160909034126)
(0 -0.00519717755372 -0.000165629535709)
(0 -0.00832185436982 -0.000168883453884)
(0 -0.0126020236068 -0.000170642170432)
(0 -0.0184741937007 -0.000170707637293)
(0 -0.0264505941979 -0.000168561530179)
(0 -0.0368874645452 -0.000163070304048)
(3.10137560167e-17 -0.0492112100216 -0.00015199352073)
(0 -0.0602466966842 -0.000131642140944)
(0 -0.0631834850948 -9.87685105354e-05)
(0 -0.0524865678847 -5.78751659451e-05)
(0 -0.0324722606274 -2.40423411762e-05)
(0 -0.0141399072346 -6.48170175901e-06)
(0 -0.00292630653486 -1.03627472712e-06)
(0 -0.00196826622632 -1.25687593912e-06)
(0 0.00019010022667 0.000873531591659)
(0 0.000552057352585 0.000873119894758)
(0 0.000872466514952 0.000872425651679)
(0 0.00114523835955 0.000871413286002)
(0 0.00137111888169 0.000869720711154)
(0 0.0015551511973 0.000866648395547)
(0 0.0017043973995 0.000861256949937)
(0 0.00182638499236 0.00085250489152)
(0 0.00192823035407 0.000839381514886)
(0 0.00201622293902 0.000821015586003)
(0 0.00209567017788 0.000796754980275)
(0 0.0021708698365 0.000766217929847)
(0 0.00224513556554 0.000729318051997)
(0 0.00232083980304 0.000686265712631)
(0 0.00239945949725 0.000637548654533)
(0 0.00248162035733 0.00058389540665)
(0 0.00256713916703 0.000526225642725)
(0 0.00265506403634 0.0004655921852)
(0 0.00274371105182 0.000403119570039)
(0 0.00283069358231 0.000339943910193)
(4.62426728653e-17 0.00291293802439 0.00027715822041)
(0 0.00298667724879 0.000215766443444)
(-2.53997393293e-17 0.00304741040672 0.000156648294455)
(0 0.00308981477971 0.000100535849049)
(0 0.0031075915219 4.80016987049e-05)
(-5.84902860179e-17 0.00309322163229 -5.42408981683e-07)
(3.06522184972e-17 0.00303760010687 -4.48381585704e-05)
(0 0.00292950330764 -8.47665419525e-05)
(-3.36727231133e-17 0.00275482456509 -0.000120329146995)
(-3.52928233559e-17 0.00249548208755 -0.00015162683533)
(-7.39817434004e-17 0.00212785559921 -0.000178837468175)
(0 0.00162053487997 -0.00020219391194)
(0 0.000931051648956 -0.00022196305181)
(0 1.09900090634e-06 -0.000238425957133)
(4.46403117399e-17 -0.00125049665526 -0.000251858589499)
(0 -0.00293809074391 -0.00026251134548)
(0 -0.0052241206679 -0.000270583771668)
(0 -0.0083396144463 -0.000276186986282)
(0 -0.0126088101522 -0.000279278411768)
(0 -0.0184661185051 -0.000279536836863)
(0 -0.0264194688023 -0.000276113268979)
(0 -0.0368166662912 -0.00026714541222)
(-3.25059250206e-17 -0.0490704911264 -0.000248952511561)
(0 -0.0599972905639 -0.000215492018294)
(0 -0.0628224372552 -0.000161510334169)
(0 -0.0521052716233 -9.45247770835e-05)
(0 -0.0321989663082 -3.92353415467e-05)
(0 -0.0140123514964 -1.05748934531e-05)
(0 -0.00289635513146 -1.69150092464e-06)
(-1.76432954495e-19 -0.00195408573985 -2.05700396994e-06)
(0 0.000189860395054 0.00114722070318)
(0 0.000551403874059 0.00114644480179)
(0 0.000871453968323 0.00114519348951)
(0 0.00114364521751 0.00114360001853)
(0 0.0013682753359 0.00114137898886)
(0 0.00154990416729 0.0011377786926)
(0 0.00169518236273 0.0011316855218)
(0 0.00181135434749 0.00112179204506)
(0 0.00190540204063 0.00110676782101)
(0 0.00198362997677 0.00108540504802)
(0 0.00205150154566 0.00105673067086)
(0 0.00211359677021 0.00102008458222)
(0 0.00217361816245 0.000975165921199)
(0 0.00223440900427 0.000922049972609)
(0 0.00229797015063 0.000861178480458)
(0 0.00236547242869 0.000793326767386)
(0 0.00243726618601 0.000719551838883)
(0 0.00251289027841 0.000641126451568)
(0 0.00259108139894 0.000559464720335)
(0 0.00266978212356 0.000476045063799)
(0 0.00274614295185 0.000392336041239)
(0 0.00281651027374 0.000309729927254)
(0 0.00287638872053 0.000229487766457)
(0 0.00292036261416 0.000152698301388)
(0 0.00294195680116 8.02517389422e-05)
(0 0.00293341133299 1.28279948699e-05)
(0 0.00288533604336 -4.91020355879e-05)
(0 0.00278619835039 -0.000105264389752)
(3.52928233578e-17 0.00262157798119 -0.000155561745229)
(0 0.00237309190212 -0.000200047593811)
(0 0.00201684566115 -0.000238897321366)
(0 0.00152119479558 -0.000272378181412)
(0 0.000843489131363 -0.000300819515337)
(0 -7.4693046497e-05 -0.000324583765139)
(0 -0.00131455063549 -0.000344037761887)
(0 -0.00299033409707 -0.000359522164905)
(-5.13986495571e-17 -0.00526416425577 -0.000371314169256)
(0 -0.00836637107822 -0.000379573219407)
(0 -0.0126197500059 -0.000384248406546)
(0 -0.0184557462761 -0.000384903166181)
(0 -0.0263762048392 -0.000380367919148)
(0 -0.0367170179951 -0.00036806646118)
(0 -0.0488718254709 -0.000342907356136)
(0 -0.0596453739578 -0.000296568202066)
(0 -0.0623141612978 -0.000221944010028)
(0 -0.0515699243536 -0.000129668929439)
(2.56970555238e-18 -0.0318160695903 -5.37609416666e-05)
(0 -0.013833849518 -1.448452992e-05)
(0 -0.0028544944753 -2.31847662056e-06)
(0 -0.00193419953027 -2.83010169775e-06)
(0 0.000189415338129 0.0013750048239)
(0 0.000550214408491 0.00137349394257)
(0 0.000869760643741 0.00137107619495)
(0 0.001141423874 0.00136823158844)
(0 0.00136499380261 0.00136494963761)
(0 0.00154444321828 0.00136062080661)
(0 0.0016858894852 0.00135412732622)
(0 0.00179617259116 0.00134402713271)
(0 0.00188203049335 0.00132875410709)
(0 0.00194969201204 0.00130679697773)
(0 0.00200470911509 0.00127684391559)
(0 0.00205190394503 0.00123789077785)
(0 0.00209535823136 0.00118931446206)
(0 0.00213840931263 0.00113091353602)
(0 0.00218363890235 0.00106291844629)
(0 0.002232852434 0.000985973964179)
(0 0.00228705213821 0.000901097242764)
(0 0.00234640844787 0.00080961577671)
(0 0.0024102333879 0.000713090490897)
(0 0.00247695713934 0.000613229903091)
(-2.53997393293e-17 0.00254410554949 0.000511801643523)
(0 0.0026082723462 0.000410547454848)
(5.58053172987e-17 0.00266507541905 0.000311107116022)
(-2.92451430087e-17 0.00270908175956 0.000214955585618)
(0 0.00273368029582 0.000123356196132)
(3.2126992799e-17 0.0027308753008 3.73311320677e-05)
(3.36727231128e-17 0.00269096421499 -4.23511116556e-05)
(3.52928233562e-17 0.00260205093599 -0.000115172880042)
(0 0.0024493262337 -0.00018085163424)
(0 0.00221401703698 -0.000239314371277)
(0 0.00187185998013 -0.000290665289679)
(0 0.00139088296359 -0.000335149502137)
(0 0.000728168898931 -0.00037311497147)
(0 -0.000174888157853 -0.000404973886567)
(0 -0.00139955752683 -0.000431163331516)
(0 -0.00305999252756 -0.000452102987814)
(0 -0.00531794470508 -0.000468143967865)
(0 -0.00840288644925 -0.000479495892967)
(0 -0.0126358070866 -0.000486105045628)
(0 -0.0184444132996 -0.000487426878989)
(0 -0.0263228687587 -0.000481978969309)
(0 -0.0365920589104 -0.000466479621498)
(3.57090959938e-17 -0.0486216867599 -0.000434444168689)
(0 -0.0592026063186 -0.000375331666907)
(0 -0.061676614922 -0.000280355521457)
(0 -0.0509007920741 -0.000163437211248)
(0 -0.0313388240147 -6.76631400164e-05)
(-7.05731818044e-19 -0.0136117054155 -1.82216664757e-05)
(-9.24608484641e-20 -0.00280248773911 -2.91927343805e-06)
(1.93818859317e-19 -0.00190938122878 -3.58065555294e-06)
(-2.08019550322e-17 0.000188587984035 0.00156246981882)
(-2.18028022853e-17 0.000547997450007 0.00155966105219)
(0 0.000866686955639 0.00155511476618)
(0 0.00113782251323 0.00154986585923)
(0 0.00136066457323 0.00154440363233)
(0 0.00153851875195 0.00153847872581)
(0 0.00167685439742 0.00153116191471)
(0 0.00178197666666 0.00152103142083)
(0 0.00186024618733 0.00150639530874)
(0 0.00191768808164 0.00148550022853)
(0 0.00195982665708 0.00145670785064)
(3.4881403348e-17 0.0019916276011 0.0014186346842)
(3.65596569873e-17 0.00201747700595 0.00137025603341)
(0 0.00204116115779 0.00131097591885)
(-4.01622873371e-17 0.00206583260187 0.0012406647365)
(0 0.00209396018833 0.00115966641518)
(0 0.00212726695109 0.00106877723553)
(0 0.00216666203044 0.000969199272709)
(0 0.00221217271678 0.000862472476295)
(2.53997393288e-17 0.00226288079838 0.000750390502658)
(0 0.00231686418372 0.000634906350761)
(2.79026586504e-17 0.00237114052606 0.000518034413131)
(0 0.0024216045283 0.000401755607513)
(0 0.00246294486228 0.000287931708093)
(0 0.00248852012083 0.000178233912001)
(-3.36727231132e-17 0.00249016551869 7.40891416462e-05)
(0 0.00245789230809 -2.33541645013e-05)
(0 0.00237942849779 -0.00011324077687)
(0 0.00223952991146 -0.000195005450743)
(-8.12719888825e-17 0.00201896097717 -0.000268354428338)
(4.25911194927e-17 0.0016929989462 -0.000333234992547)
(0 0.00122924465079 -0.000389796510071)
(0 0.000584414875178 -0.000438346006079)
(0 -0.000300370135602 -0.000479300364868)
(0 -0.00150651953872 -0.000513135676043)
(0 -0.00314812467996 -0.000540331651287)
(0 -0.00538654572426 -0.000561304484543)
(0 -0.00845027444124 -0.000576312857903)
(0 -0.0126581804917 -0.000585304185066)
(0 -0.0184335408525 -0.000587632058432)
(0 -0.0262613982328 -0.000581506533761)
(0 -0.0364448634444 -0.000562943265389)
(1.87135862598e-17 -0.0483255408439 -0.000524071707925)
(-3.92279110873e-17 -0.0586788708975 -0.000452184404892)
(2.05576444207e-17 -0.0609252764679 -0.00033699807686)
(0 -0.0501156113627 -0.000195949196242)
(0 -0.030780707104 -8.09846627121e-05)
(0 -0.0133524011093 -2.17972916886e-05)
(9.69094296694e-20 -0.00274190825849 -3.49591231731e-06)
(0 -0.00188030951256 -4.31280198518e-06)
(0 0.000187156735805 0.00171710788626)
(0 0.000544124769993 0.00171228995645)
(0 0.000861293565119 0.00170436931851)
(0 0.00113172756466 0.0016951516105)
(0 0.00135416988969 0.00168585659495)
(0 0.00153120152087 0.00167682020428)
(0 0.00166754001901 0.00166750541503)
(0 0.00176882465903 0.00165668205274)
(0 0.00184089362466 0.00164266479115)
(0 0.00188941795789 0.001623548242)
(0 0.00191974533429 0.00159741372764)
(0 0.00193684381778 0.00156250059851)
(0 0.00194527755152 0.00151734201945)
(0 0.00194917814696 0.00146086685756)
(0 0.00195219618389 0.00139246914157)
(0 0.00195742951206 0.00131204613823)
(0 0.0019673318209 0.00122000601697)
(0 0.00198360818772 0.00111724652187)
(0 0.00200710519074 0.00100510695498)
(0 0.00203770223936 0.000885296993075)
(0 0.00207420830995 0.000759807175136)
(0 0.00211426444383 0.00063080711719)
(3.06522184969e-17 0.00215424723973 0.000500538378731)
(0 0.00218916225589 0.000371209249745)
(0 0.00221250869743 0.000244898403907)
(0 0.00221608776235 0.000123473387188)
(0 0.00218971591124 8.52835402972e-06)
(0 0.00212078977137 -9.86564367117e-05)
(4.06359944436e-17 0.00199362905357 -0.00019713286343)
(8.51822389867e-17 0.00178849393688 -0.000286282231085)
(0 0.00148012802274 -0.000365794318787)
(0 0.00103560831542 -0.000435631709542)
(0 0.000411177361594 -0.000495983040877)
(0 -0.000452426012208 -0.000547208164171)
(0 -0.0016368449023 -0.000589776601738)
(0 -0.00325617320465 -0.00062419772592)
(2.95900843159e-17 -0.0054713907248 -0.000650935662975)
(0 -0.00850992360411 -0.000670291486277)
(0 -0.0126882566188 -0.000682214231702)
(0 -0.0184246192298 -0.000685959372939)
(0 -0.0261936284178 -0.000679431986062)
(0 -0.0362781329248 -0.000657942840579)
(0 -0.04798804213 -0.000612234414703)
(0 -0.0580826074986 -0.000527478305449)
(-1.07733685623e-17 -0.0600735638643 -0.000392095579449)
(0 -0.0492299498859 -0.00022731426505)
(0 -0.0301536290348 -9.37662451828e-05)
(0 -0.0130616803701 -2.52220755684e-05)
(0 -0.00267415635845 -4.05034027174e-06)
(0 -0.00184757942031 -5.03041197732e-06)
(0 0.000184888060965 0.00184670634882)
(2.39512753207e-17 0.000537923363598 0.00183908311489)
(0 0.000852539096915 0.00182636588513)
(0 0.00112183171367 0.00181133186233)
(0 0.00134406780119 0.0017961471879)
(0 0.0015210698497 0.00178194916537)
(0 0.00165671626474 0.00176879596966)
(0 0.00175585789174 0.00175582885067)
(0 0.00182366582545 0.00174151896497)
(0 0.00186529887973 0.0017239245877)
(0 0.00188576267616 0.00170092560142)
(0 0.00188986080603 0.00167042470316)
(0 0.00188217389609 0.00163051422739)
(0 0.00186703063931 0.00157961014937)
(0 0.00184845393957 0.00151655473692)
(0 0.0018300771994 0.0014406885284)
(0 0.00181503283608 0.00135189172674)
(0 0.00180581903745 0.00125059502974)
(0 0.00180415258938 0.00113776042823)
(0 0.00181081577782 0.00101483350695)
(5.84902860142e-17 0.00182550403744 0.000883670180628)
(3.06522184978e-17 0.00184667816239 0.000746442373737)
(3.2126992797e-17 0.0018714204178 0.000605528683405)
(-3.3672723112e-17 0.00189528770519 0.000463397299796)
(0 0.00191214694437 0.000322489147723)
(0 0.00191396779836 0.000185109177678)
(0 0.00189053531592 5.33329132243e-05)
(0 0.00182902890588 -7.10661873633e-05)
(-4.2591119495e-17 0.0017133922524 -0.00018666505363)
(4.46403117386e-17 0.00152338786262 -0.000292413787682)
(4.67880970454e-17 0.0012331841972 -0.000387633821611)
(0 0.000809254216964 -0.000471994047042)
(0 0.000207259413161 -0.000545468451723)
(0 -0.000632562201682 -0.000608278778425)
(0 -0.00179220383868 -0.000660824428111)
(0 -0.00338585607648 -0.00070359873181)
(0 -0.00557416446009 -0.000737084547714)
(-3.25059250194e-17 -0.0085834446996 -0.000761609956987)
(3.40698869492e-17 -0.0127275800272 -0.000777120253538)
(0 -0.0184192028185 -0.000782772576057)
(0 -0.0261213183375 -0.000776166042603)
(-3.92279110913e-17 -0.0360942709275 -0.00075189938965)
(0 -0.0476131890831 -0.000699319883846)
(0 -0.057421076728 -0.00060151996417)
(0 -0.0591331757443 -0.000445843966051)
(-5.91749430118e-18 -0.0482575129731 -0.000257630753097)
(0 -0.029468120122 -0.000106045779393)
(-8.12576368434e-19 -0.0127446278071 -2.8506093388e-05)
(0 -0.00260047609955 -4.58439954799e-06)
(0 -0.00181171233311 -5.73714201683e-06)
(0 0.000181566261125 0.00195845550342)
(0 0.000528761006044 0.00194721403405)
(0 0.000839412972936 0.00192821990652)
(0 0.00110680466622 0.00190538763122)
(0 0.00132879234336 0.00188201250786)
(0 0.00150643195718 0.00186022542195)
(0 0.00164269796005 0.00184087099874)
(0 0.00174154767048 0.00182364219986)
(0 0.00180735200714 0.00180732809914)
(0 0.00184460455254 0.00179008752244)
(0 0.00185780144997 0.00176970714231)
(0 0.00185140482263 0.00174382941008)
(0 0.00182983085119 0.00171014788901)
(0 0.00179742763917 0.00166657148496)
(0 0.00175842491373 0.00161135927379)
(0 0.00171684862298 0.00154322660257)
(0 0.00167640042332 0.00146142207964)
(0 0.00164030634206 0.00136577444896)
(0 0.00161114141672 0.00125670833929)
(0 0.00159063827439 0.00113522846328)
(0 0.00157948749716 0.00100287300445)
(0 0.00157713605911 0.000861638494538)
(6.73454462238e-17 0.0015815868708 0.000713880344411)
(0 0.00158919721789 0.000562195060264)
(0 0.00159446627381 0.000409291815794)
(0 0.00158979155319 0.000257862140705)
(0 0.00156516061403 0.000110456803814)
(0 0.00150772658124 -3.06216496434e-05)
(4.46403117417e-17 0.00140119239447 -0.000163403743503)
(0 0.0012248959738 -0.000286310548215)
(4.9039219036e-17 0.000952441527252 -0.000398181599568)
(0 0.000549652747958 -0.000498273545199)
(0 -2.84801050491e-05 -0.000586231744844)
(0 -0.000842339886654 -0.000662037976256)
(5.91801686369e-17 -0.00197440159152 -0.000725936829405)
(0 -0.00353907372091 -0.0007783405166)
(0 -0.00569674932221 -0.000819705179858)
(-3.40698869512e-17 -0.0086726312029 -0.000850358004017)
(0 -0.0127778344848 -0.000870226251151)
(0 -0.0184189109428 -0.000878362387043)
(0 -0.0260461759864 -0.000872053851461)
(0 -0.0358954459553 -0.000845175065756)
(-2.15467371244e-17 -0.0472044496254 -0.000785663723284)
(0 -0.0567005735686 -0.00067457373611)
(0 -0.0581143733615 -0.000498411895784)
(0 -0.0472104069823 -0.00028698515628)
(0 -0.0287334995575 -0.000117857602578)
(0 -0.0124057425419 -3.16585976951e-05)
(0 -0.00252197154648 -5.09980158857e-06)
(0 -0.00177316484308 -6.43647165528e-06)
(0 0.000177016633366 0.00205853894018)
(0 0.000516114026527 0.00204291440605)
(0 0.000821044087603 0.00201622032003)
(0 0.00108543877129 0.00198362295115)
(0 0.00130683240375 0.00194968089203)
(0 0.00148553465624 0.001917673631)
(0 0.00162357988022 0.00188940109602)
(0 0.00172395243392 0.00186528048465)
(0 0.00179011116099 0.00184458536583)
(0 0.00182574739571 0.00182572799381)
(0 0.00183469043178 0.00180653498849)
(0 0.00182088700051 0.00178449714784)
(0 0.00178840268143 0.0017569891614)
(4.62426728657e-17 0.0017414124097 0.001721460496)
(2.42337763954e-17 0.00168416149009 0.00167559948038)
(-2.53997393308e-17 0.00162088822289 0.00161747154944)
(0 0.00155570568386 0.00154563117468)
(0 0.00149244450528 0.00145920588286)
(2.92451430096e-17 0.00143446139514 0.00135795020534)
(3.06522184968e-17 0.00138442000279 0.00124226747877)
(0 0.00134405162085 0.00111319811623)
(3.36727231143e-17 0.00131390295768 0.000972374246886)
(0 0.0012930764622 0.000821942394213)
(0 0.00127896491096 0.000664457985796)
(7.7541236946e-17 0.00126697563808 0.000502757725412)
(0 0.00125023019299 0.000339817944786)
(0 0.00121921160175 0.000178608613608)
(0 0.00116131275445 2.19534251635e-05)
(0 0.00106021408674 -0.00012759395336)
(-4.90392190378e-17 0.000894983878892 -0.000267848785656)
(0 0.000638745439948 -0.000397062982429)
(0 0.000256684573521 -0.000513958128942)
(0 -0.000296933051613 -0.000617723106585)
(0 -0.00108321536295 -0.00070797765012)
(0 -0.00218525469616 -0.000784703676714)
(0 -0.00371781940203 -0.000848144103911)
(0 -0.00584116554488 -0.000898662188475)
(0 -0.0087794240866 -0.000936539353722)
(3.7427172518e-17 -0.0128408277678 -0.000961657783344)
(0 -0.0184254303855 -0.000972949905005)
(0 -0.0259698807359 -0.000967379186997)
(0 -0.0356836435273 -0.00093807762519)
(0 -0.0467648631922 -0.000871553547666)
(0 -0.0559266017084 -0.000746864374989)
(0 -0.0570262151668 -0.000549941611424)
(0 -0.0460993658011 -0.000315451769891)
(0 -0.0279580261972 -0.000129232058606)
(0 -0.0120490059109 -3.46878721737e-05)
(0 -0.00243962215862 -5.59811187574e-06)
(0 -0.00173233661412 -7.13173953576e-06)
(0 0.000171121334131 0.00215199536377)
(0 0.000499614910641 0.00213132892791)
(0 0.000796780435307 0.0020956743228)
(0 0.00105676111292 0.00205150098342)
(0 0.0012768763012 0.00200470408412)
(0 0.00145673976589 0.00195981787917)
(0 0.00159744349661 0.00191973371557)
(0 0.00170095221526 0.00188574910366)
(0 0.00176973011202 0.00185778668372)
(0 0.00180655418507 0.00183467506893)
(0 0.00181444939413 0.00181443387414)
(0 0.00179668711147 0.00179453869539)
(0 0.00175680291407 0.00177215947817)
(0 0.00169860400872 0.00174437297457)
(0 0.0016261477338 0.00170835158653)
(-2.66218003959e-17 0.0015436805885 0.00166152999879)
(0 0.0014555328339 0.00160174935144)
(0 0.00136596770951 0.00152737715276)
(0 0.00127898726036 0.00143740006143)
(0 0.00119809898544 0.00133148621027)
(0 0.00112604907792 0.0012100139076)
(0 0.00106452878718 0.00107406435876)
(3.69908717009e-17 0.00101386005915 0.000925377441569)
(0 0.000972664526763 0.000766271524415)
(0 0.000937515393427 0.000599530715261)
(0 0.00090256382332 0.000428265571329)
(0 0.000859118982427 0.000255755889164)
(0 0.000795142501314 8.52863287273e-05)
(0 0.000694592015101 -8.00131152873e-05)
(0 0.00053651184008 -0.000237309708596)
(0 0.00029371741083 -0.000384182801955)
(0 -6.91530506595e-05 -0.000518702459428)
(0 -0.000598551231948 -0.00063946652261)
(0 -0.00135637666275 -0.000745593710719)
(0 -0.00242646108832 -0.000836672075846)
(3.40698869519e-17 -0.00392408371022 -0.000912661159355)
(-3.5709095988e-17 -0.00600950713678 -0.000973740043311)
(0 -0.00890587417213 -0.0010200776198)
(0 -0.0129184751031 -0.0010514665452)
(0 -0.0184405162387 -0.00106669104144)
(0 -0.0258941016952 -0.00106236913402)
(0 -0.0354607088051 -0.00103086516723)
(0 -0.0462971237499 -0.000957233199061)
(0 -0.0551040161211 -0.000818580071048)
(1.30012218958e-17 -0.0558767519293 -0.00060055043155)
(0 -0.0449339445965 -0.000343092937589)
(0 -0.0271490316947 -0.000140195383425)
(0 -0.0116779425894 -3.760117928e-05)
(0 -0.00235429698359 -6.08074808267e-06)
(0 -0.00168957729142 -7.82618429487e-06)
(0 0.000163828349417 0.00224271481683)
(-2.89042227913e-17 0.000479080629435 0.00221650206777)
(0 0.000766240353742 0.00217087961604)
(0 0.0010201117066 0.00211360168628)
(0 0.00123792002186 0.00205190415986)
(-3.4881403348e-17 0.00141866392426 0.00199162378224)
(0 0.00156252828598 0.0019368368436)
(0 0.00167044983703 0.00188985155968)
(0 0.00174385143806 0.00185139407498)
(0 0.00178451584731 0.00182087536517)
(0 0.00179455406545 0.00179667504523)
(0 0.00177642498588 0.00177641280972)
(2.4233776395e-17 0.00173297154027 0.00175719808676)
(0 0.00166744783258 0.001735857532)
(-2.66218003954e-17 0.00158351958826 0.00170914270891)
(0 0.00148522623204 0.00167391982965)
(0 0.00137689736416 0.00162734174543)
(0 0.00126301981615 0.0015670005238)
(0 0.00114805419017 0.00149105742393)
(0 0.00103620204406 0.00139834611913)
(0 0.000931126741499 0.00128844464741)
(0 0.000835632364011 0.0011617118292)
(0 0.000751305706328 0.00101928476081)
(0 0.000678125760659 0.000863035488396)
(0 0.000614042460863 0.000695487091424)
(0 0.000554520702513 0.000519692094577)
(4.6788097048e-17 0.000492035349049 0.000339079223327)
(0 0.000415486235226 0.000157277709574)
(0 0.000309476814725 -2.20688135074e-05)
(5.38715996827e-17 0.000153363016205 -0.000195484833032)
(0 -8.00743093598e-05 -0.000359827293452)
(0 -0.000426555601781 -0.0005124180949)
(0 -0.000933157040554 -0.000651133462148)
(-6.5011850036e-17 -0.00166257245883 -0.00077444200593)
(0 -0.00269945820571 -0.000881385961193)
(0 -0.00415974655442 -0.00097150039015)
(0 -0.00620386715243 -0.00104466002577)
(0 -0.00905409648594 -0.00110082738772)
(0 -0.0130127769633 -0.0011396383481)
(0 -0.0184659881983 -0.00115968320322)
(0 -0.0258205106343 -0.00115720033451)
(0 -0.03522838018 -0.00112375205021)
(0 -0.0458036465084 -0.00104290794819)
(0 -0.0542371389346 -0.00088987641632)
(0 -0.054673187853 -0.000650333136404)
(0 -0.0437226838137 -0.00036995998289)
(0 -0.0263130363094 -0.00015076992321)
(0 -0.011295674759 -4.04048022717e-05)
(0 -0.0022667674405 -6.54899199225e-06)
(0 -0.00164519250543 -8.52299334978e-06)
(-2.89042227917e-17 0.000155154256994 0.00233349403572)
(-3.02948955405e-17 0.00045452344775 0.00230142189814)
(0 0.000729337549597 0.00224514988053)
(0 0.000975189796657 0.00217362759425)
(0 0.00118934057236 0.00209536286615)
(-3.65596569873e-17 0.00137028254277 0.00201747744217)
(0 0.0015173675164 0.00194527462328)
(0 0.00163053773286 0.00188216846738)
(0 0.00171016880049 0.00182982369332)
(0 0.00175700717194 0.00178839441929)
(0 0.00177217449415 0.00175679401908)
(-2.4233776395e-17 0.00175721015805 0.00173296234697)
(0 0.00171412690752 0.00171411764084)
(0 0.00164545915129 0.00169699110391)
(2.79026586497e-17 0.00155428811569 0.00167804615897)
(0 0.00144423171873 0.00165368461303)
(3.06522184972e-17 0.0013193901119 0.00162044048164)
(0 0.0011842403959 0.00157516022524)
(-3.36727231136e-17 0.0010434762692 0.00151516625623)
(0 0.000901790402148 0.00143839915122)
(0 0.000763599169158 0.0013435331147)
(0 0.000632710967887 0.0012300589666)
(0 0.000511940513041 0.00109832922183)
(0 0.000402671850829 0.000949560749752)
(-4.46403117384e-17 0.000304371750247 0.00078579206438)
(0 0.000214051524866 0.000609794589893)
(4.90392190387e-17 0.000125667661593 0.000424940247076)
(0 2.94377327229e-05 0.000235031345398)
(-5.38715996865e-17 -8.89748835194e-05 4.41026961174e-05)
(0 -0.000249489638777 -0.000143790395721)
(-2.95900843181e-17 -0.000478986172101 -0.000324781734366)
(0 -0.000813242913492 -0.000495383498584)
(0 -0.00129975909421 -0.000652637671622)
(0 -0.00200193341268 -0.000794214160359)
(0 -0.00300526643808 -0.000918442785685)
(0 -0.00442645225412 -0.00102426750209)
(-7.84558221737e-17 -0.00642624726232 -0.00111110727596)
(0 -0.00922621189217 -0.00117859244762)
(0 -0.0131257873132 -0.00122610607073)
(0 -0.0185037195236 -0.00125197547638)
(0 -0.025750787969 -0.00125200781183)
(-2.48088139958e-17 -0.0349883137014 -0.00121691680626)
(0 -0.0452866199066 -0.00112875131276)
(0 -0.0533298519463 -0.000960881705466)
(0 -0.0534220116269 -0.000699365426317)
(3.74238676888e-18 -0.0424732458499 -0.000396094851484)
(0 -0.0254558479288 -0.000160974677422)
(0 -0.0109049692116 -4.31041778155e-05)
(6.73276079448e-20 -0.00217771857913 -7.00401478467e-06)
(0 -0.00159944902004 -9.22536064807e-06)
(0 0.000145181552728 0.00242611433547)
(0 0.000426146215469 0.00238808473625)
(0 0.000686282460048 0.00232085763044)
(0 0.000922070752934 0.00223442205432)
(0 0.00113093661058 0.00213841759569)
(0 0.00131099972927 0.00204116519071)
(0 0.00146089013699 0.00194917870206)
(0 0.00157963195528 0.00186702854467)
(0 0.00166659117957 0.00179742365446)
(0 0.00172147769916 0.00174140716327)
(0 0.00174438750719 0.00169859798302)
(0 0.00173586936178 0.00166744137477)
(0 0.00169700030058 0.00164545249713)
(0 0.00162945547009 0.00162944877005)
(0 0.00153555912532 0.00161577218787)
(3.06522184969e-17 0.00141830509799 0.00160050391517)
(0 0.00128133650102 0.00157967249671)
(0 0.00112887591952 0.00154945506238)
(0 0.000965598882225 0.00150636879225)
(0 0.000796444987739 0.0014474480527)
(0 0.000626362634957 0.0013704012487)
(0 0.00045998480192 0.00127374062326)
(0 0.000301234574663 0.00115687798153)
(4.46403117391e-17 0.00015285991724 0.00102017962867)
(0 1.58970174033e-05 0.000864974725734)
(0 -0.000110940437871 0.000693512877863)
(5.13986495608e-17 -0.000231953903898 0.000508869211266)
(0 -0.000355253060692 0.000314798581929)
(0 -0.000493687178796 0.000115544846646)
(0 -0.000665984872163 -8.43839755243e-05)
(0 -0.000898223166987 -0.000280458864471)
(0 -0.00122582322796 -0.000468371339467)
(0 -0.00169638058074 -0.000644250843942)
(0 -0.00237379008021 -0.000804834886437)
(0 -0.00334431842282 -0.000947569899141)
(0 -0.004725465481 -0.00107062164293)
(0 -0.00667844784923 -0.00117277068487)
(0 -0.00942427183956 -0.00125315352754)
(0 -0.0132595686176 -0.00131076945476)
(0 -0.0185556158677 -0.00134358376768)
(0 -0.025686620037 -0.00134689749828)
(2.60024437906e-17 -0.034742097743 -0.0013105129248)
(0 -0.0447480435774 -0.00121491412498)
(0 -0.0523856678961 -0.00103170396177)
(0 -0.0521291002649 -0.000747708608102)
(0 -0.0411925264977 -0.000421532481794)
(0 -0.0245826450623 -0.000170826155856)
(0 -0.0105082775038 -4.57041145694e-05)