/*--------------------------------*- C++ -*----------------------------------*\
| =========                 |                                                 |
| \\      /  F ield         | OpenFOAM: The Open Source CFD Toolbox           |
|  \\    /   O peration     | Version:  3.0.1                                 |
|   \\  /    A nd           | Web:      www.OpenFOAM.org                      |
|    \\/     M anipulation  |                                                 |
\*---------------------------------------------------------------------------*/
FoamFile
{
    version     2.0;
    format      ascii;
    class       volTensorField;
    location    "50000";
    object      grad(Usqr);
}
// * * * * * * * * * * * * * * * * * * * * * * * * * * * * * * * * * * * * * //

dimensions      [0 0 -1 0 0 0 0];

internalField   nonuniform List<tensor> 
2500
(
(0 0 0 -0.00992640181552 3.00538235934e-23 -1.47067846898e-25 -0.00992614315732 -1.48046994672e-25 3.00283895958e-23)
(0 0 0 -0.0291397774895 6.86967284448e-23 -4.1584790424e-25 -0.00993163920936 -1.27232173998e-24 2.86269282836e-23)
(4.62508404268e-15 0 3.82577985153e-39 -0.0470102299239 1.05955861748e-22 -6.33082275756e-25 -0.00994347229132 -3.27778598591e-24 2.61784862704e-23)
(0 0 0 -0.0635052208319 1.33567310187e-22 -7.92273438939e-25 -0.00996219899254 -5.88718743607e-24 2.30174614696e-23)
(0 0 0 -0.0787519067847 1.50741794386e-22 -8.8768328095e-25 -0.00998673086859 -8.86855662439e-24 1.94689848242e-23)
(5.32530048824e-15 5.63838120947e-37 4.40498531989e-39 -0.092972534966 1.57722062664e-22 -9.28553002133e-25 -0.0100140893897 -1.19249017276e-23 1.58307577041e-23)
(0 0 0 -0.106428038258 1.55568024697e-22 -9.17022218431e-25 -0.0100398891439 -1.49197342861e-23 1.22989808578e-23)
(0 0 1.20976440092e-39 -0.119382010792 1.45356112366e-22 -8.60346905336e-25 -0.0100590452792 -1.76760812753e-23 9.07116008917e-24)
(0 0 0 -0.132082617184 1.28534234424e-22 -7.68841205223e-25 -0.0100664149745 -2.00494604648e-23 6.24866500585e-24)
(0 0 0 -0.144755965114 1.06664004788e-22 -6.43783064755e-25 -0.0100572782155 -2.20913313673e-23 3.91872980283e-24)
(0 0 0 -0.157605516319 8.11785544007e-23 -4.96133224067e-25 -0.0100276603589 -2.36537827157e-23 2.12317610194e-24)
(0 0 0 -0.170814198095 5.32946994352e-23 -3.31625100154e-25 -0.00997452578812 -2.47495663237e-23 8.78034989054e-25)
(7.39948103469e-15 7.8345052862e-37 2.39090127142e-41 -0.18454750345 2.43053041882e-23 -1.54574175166e-25 -0.00989587135816 -2.53671370296e-23 1.79816936329e-25)
(0 0 0 -0.198956838921 -4.57742199554e-24 2.95976201434e-26 -0.00979074146066 -2.55488322095e-23 6.36471992918e-27)
(0 0 0 -0.214182877746 -3.27590111647e-23 2.17499706361e-25 -0.00965918021225 -2.53537338533e-23 3.25237301026e-25)
(0 0 0 -0.230358900016 -5.94507370416e-23 4.04766655946e-25 -0.00950213394507 -2.48001012419e-23 1.09491256532e-24)
(0 0 0 -0.247614186935 -8.4068498549e-23 5.88279586275e-25 -0.00932131619699 -2.39692672216e-23 2.26720503223e-24)
(0 0 0 -0.266077558986 -1.06254933423e-22 7.64969642496e-25 -0.00911904791973 -2.28984205451e-23 3.79201593101e-24)
(0 0 0 -0.285881147525 -1.25702156024e-22 9.32509891961e-25 -0.00889808538018 -2.16433954952e-23 5.61691927004e-24)
(0 0 0 -0.30716448692 -1.42281219515e-22 1.08839866565e-24 -0.00866144765305 -2.02542126657e-23 7.68987949732e-24)
(0 0 0 -0.330079019904 -1.55906993559e-22 1.23127296866e-24 -0.0084122542408 -1.87681560367e-23 9.96020578293e-24)
(0 0 0 -0.354793127462 -1.66586930521e-22 1.35883555361e-24 -0.00815358099451 -1.72325182656e-23 1.23792015502e-23)
(0 0 0 -0.381497828849 -1.74384581265e-22 1.47024223337e-24 -0.00788833960027 -1.56732893229e-23 1.48985687918e-23)
(0 0 0 -0.410413348621 -1.79434173509e-22 1.56169127003e-24 -0.00761918364282 -1.4146164067e-23 1.74767425603e-23)
(0 0 0 -0.441796820162 -1.81893132456e-22 1.63225049721e-24 -0.00734844130309 -1.26620592433e-23 2.00689079165e-23)
(0 0 0 -0.475951492258 -1.81958656756e-22 1.68145400609e-24 -0.00707807280897 -1.12234500575e-23 2.26359495417e-23)
(0 0 0 -0.513237932707 -1.79823511271e-22 1.70577418124e-24 -0.00680964941767 -9.8637879589e-24 2.51415553718e-23)
(0 0 0 -0.554087893519 -1.75697896578e-22 1.70286689682e-24 -0.00654434974533 -8.59215071843e-24 2.75471577972e-23)
(0 0 0 -0.599021728604 -1.69825761048e-22 1.67087420637e-24 -0.00628296870968 -7.41096066984e-24 2.98203676285e-23)
(0 0 0 -0.648670554647 -1.62428983638e-22 1.60799295491e-24 -0.00602593472199 -6.31824627705e-24 3.19295994687e-23)
(0 0 0 -0.703804741814 -1.53736847863e-22 1.50707572958e-24 -0.00577333047398 -5.33881443971e-24 3.38422016797e-23)
(0 0 0 -0.765370825346 -1.43980069509e-22 1.36484752411e-24 -0.0055249133449 -4.46300619469e-24 3.55278490473e-23)
(0 0 0 -0.834539531042 -1.33373879492e-22 1.17662011113e-24 -0.00528013124497 -3.68483195297e-24 3.69538125611e-23)
(0 0 0 -0.91276820207 -1.22125866841e-22 9.3626452802e-25 -0.00503812978109 -2.99970868455e-24 3.80886875885e-23)
(0 0 0 -1.00188114423 -1.10441969646e-22 6.35451874182e-25 -0.00479774572797 -2.40434123272e-24 3.88994810387e-23)
(0 0 0 -1.10417023156 -9.85299575253e-23 2.63355771927e-25 -0.00455748014641 -1.89519172038e-24 3.93497979161e-23)
(0 0 0 -1.22251264821 -8.65765885885e-23 -1.92720119898e-25 -0.00431544094227 -1.46435937553e-24 3.94006013662e-23)
(0 0 0 -1.36048508038 -7.47564916666e-23 -7.49520490309e-25 -0.00406923797979 -1.10509493261e-24 3.90069314217e-23)
(0 0 0 -1.5224028031 -6.32480290749e-23 -1.42894483239e-24 -0.00381580149473 -8.11330591904e-25 3.81172441846e-23)
(0 0 0 -1.71307034309 -5.22254049074e-23 -2.25817058196e-24 -0.00355107105157 -5.76660127745e-25 3.66692687608e-23)
(0 0 0 -1.93664515115 -4.18514711002e-23 -3.26722053185e-24 -0.00326946356933 -3.93527115738e-25 3.45914582487e-23)
(0 0 0 -2.19302835857 -3.22959183797e-23 -4.4803847123e-24 -0.00296298710734 -2.55333056303e-25 3.18026688793e-23)
(0 0 0 -2.46814810862 -2.3735940093e-23 -5.88432994428e-24 -0.00261998195169 -1.55544300562e-25 2.82258819819e-23)
(0 0 0 -2.71345337527 -1.63555293547e-23 -7.34833698004e-24 -0.00222463943184 -8.71884675459e-26 2.38297497558e-23)
(0 0 0 -2.82533779749 -1.03347099075e-23 -8.51264486751e-24 -0.00176362424476 -4.35504108455e-26 1.87297920562e-23)
(0 0 0 -2.68160846516 -5.80431933376e-24 -8.84465499765e-24 -0.00125291536721 -1.86523862222e-26 1.33341249601e-23)
(0 0 0 -2.2557213839 -2.77350803956e-24 -8.04272074962e-24 -0.000764212027161 -6.39035994235e-27 8.32130450987e-24)
(0 0 0 -1.65238936503 -1.04524982041e-24 -6.30424233222e-24 -0.000379855139222 -1.51240016052e-27 4.29779663534e-24)
(0 0 0 -0.993064520099 -2.63131665255e-25 -4.01497623486e-24 -0.000131769245776 -1.64102358986e-28 1.55687427574e-24)
(0 0 0 -0.412974919003 -2.97769318509e-26 -1.75312125501e-24 -1.42666992179e-05 -4.56960317346e-31 1.77356087932e-25)
(0 0 0 -0.00993189786756 2.86402508856e-23 -1.26114454478e-24 -0.0291390993505 -4.19423495752e-25 6.86691622751e-23)
(0 0 0 -0.0291576759501 6.54705002832e-23 -3.57094694015e-24 -0.0291569957796 -3.59989525349e-24 6.54483930783e-23)
(0 0 0 -0.0470432043843 1.00987373483e-22 -5.43473909128e-24 -0.0291949078538 -9.27854818034e-24 5.98301933177e-23)
(0 0 0 -0.0635540387728 1.27268040571e-22 -6.8023109746e-24 -0.0292542190087 -1.66645602132e-23 5.25964061192e-23)
(0 0 0 -0.0788131687359 1.43620684841e-22 -7.62935079496e-24 -0.0293316867349 -2.50800892805e-23 4.44810436594e-23)
(5.58151738504e-15 0 1.84676918781e-38 -0.0930381839815 1.50245658301e-22 -7.9718438635e-24 -0.0294186892887 -3.37686352304e-23 3.61439097724e-23)
(0 0 0 -0.106486066717 1.48125874581e-22 -7.87141829749e-24 -0.0295025443399 -4.22477725026e-23 2.8083838139e-23)
(0 -6.49200618411e-37 -1.01437596627e-38 -0.119417646457 1.38404192145e-22 -7.38014978962e-24 -0.0295684900278 -5.0106024849e-23 2.06925513321e-23)
(0 0 0 -0.132079551037 1.22262759154e-22 -6.58149387082e-24 -0.029601502762 -5.69546679037e-23 1.42509753998e-23)
(6.73573410401e-15 0 5.57166866215e-39 -0.14469744958 1.01305375397e-22 -5.51973250589e-24 -0.0295876759336 -6.26656923586e-23 8.93345870554e-24)
(0 0 0 -0.157475299284 7.70405016296e-23 -4.25945683192e-24 -0.0295151583167 -6.70579812336e-23 4.83217529357e-24)
(7.39948103457e-15 7.83450528608e-37 1.53017681369e-39 -0.17059729995 5.05060375747e-23 -2.84644288657e-24 -0.0293747321459 -7.01564270481e-23 1.99417805996e-24)
(0 8.21144789006e-37 2.00474802003e-40 -0.184230846199 2.29504100784e-23 -1.32816061983e-24 -0.0291601100487 -7.19059754181e-23 4.04894354718e-25)
(0 0 0 -0.198529726985 -4.5373683817e-24 2.54302536958e-25 -0.0288680103354 -7.24633464847e-23 1.55044072593e-26)
(0 0 0 -0.21363732385 -3.13307291161e-23 1.86588040451e-24 -0.0284980530524 -7.19369863017e-23 7.49398136402e-25)
(0 0 0 -0.229689790221 -5.67005726936e-23 3.47206314953e-24 -0.0280525113083 -7.04094608911e-23 2.51036170276e-24)
(0 0 0 -0.24681928493 -8.01160182172e-23 5.04501303771e-24 -0.0275359501324 -6.80750909482e-23 5.1893067377e-24)
(0 0 0 -0.265157358956 -1.01193803942e-22 6.56094865781e-24 -0.0269547866939 -6.50488399684e-23 8.67061724275e-24)
(0 0 0 -0.284838594076 -1.19675510704e-22 7.99694766876e-24 -0.0263168061172 -6.15037458926e-23 1.28356895265e-23)
(0 0 0 -0.306004588876 -1.35415461277e-22 9.33571852262e-24 -0.0256306668408 -5.75622563844e-23 1.75662609951e-23)
(0 0 0 -0.32880838979 -1.48347425902e-22 1.0561040953e-23 -0.0249054260337 -5.33512234017e-23 2.27467376247e-23)
(0 0 0 -0.353419478919 -1.58473455125e-22 1.16537726423e-23 -0.0241501103007 -4.90061886183e-23 2.82649603884e-23)
(0 0 0 -0.38002946258 -1.65907721344e-22 1.26051727419e-23 -0.0233733494791 -4.45970922045e-23 3.40159547815e-23)
(3.25116663421e-15 3.44230657023e-37 2.1514416064e-38 -0.408858652652 -1.70766516869e-22 1.33984710501e-23 -0.0225830838654 -4.02221827737e-23 3.98952987098e-23)
(0 0 0 -0.440163802497 -1.73075760037e-22 1.40111125964e-23 -0.0217863478972 -3.59797138433e-23 4.58137384406e-23)
(0 0 0 -0.474247356933 -1.73113169668e-22 1.4436714919e-23 -0.0209891266011 -3.18867846401e-23 5.16746405122e-23)
(0 0 0 -0.51146870275 -1.71106715784e-22 1.46470635885e-23 -0.0201962767924 -2.8020202449e-23 5.7396144941e-23)
(0 0 0 -0.552258076389 -1.67182070262e-22 1.46226709185e-23 -0.0194115016677 -2.44056837996e-23 6.28943311757e-23)
(-4.11225507825e-15 -2.17700971174e-37 0 -0.59713401382 -1.61551686593e-22 1.43528118374e-23 -0.0186373657077 -2.1035374446e-23 6.80946347554e-23)
(-4.31010855827e-15 -2.28175247193e-37 -5.70438117983e-38 -0.646725526743 -1.54529206969e-22 1.38006025195e-23 -0.0178753365655 -1.79505770172e-23 7.29167818264e-23)
(0 0 0 -0.701800585146 -1.46323906128e-22 1.29371106211e-23 -0.0171258406418 -1.51521417905e-23 7.72903284675e-23)
(0 0 0 -0.763302989621 -1.37053836446e-22 1.17205296054e-23 -0.0163883196404 -1.26463049485e-23 8.11440980291e-23)
(0 0 0 -0.83240031507 -1.2695202591e-22 1.01026926314e-23 -0.0156612758988 -1.04291610517e-23 8.44070153008e-23)
(0 0 0 -0.910546196093 -1.16236807976e-22 8.03465591373e-24 -0.0149422932805 -8.47933946325e-24 8.70055439103e-23)
(0 0 0 -0.999560441913 -1.05118820726e-22 5.44183793767e-24 -0.0142280186991 -6.79020421007e-24 8.88624141118e-23)
(0 0 0 -1.10172927199 -9.3782401356e-23 2.23720556262e-24 -0.0135140840489 -5.34395370551e-24 8.989567126e-23)
(0 0 0 -1.2199224563 -8.23947733099e-23 -1.69009778117e-24 -0.0127949377124 -4.12120253105e-24 9.00142350664e-23)
(-3.1385100185e-15 -4.15378342337e-38 -4.15378342337e-38 -1.35770650475 -7.11346818665e-23 -6.48419343636e-24 -0.0120635359876 -3.10333692448e-24 8.91162446223e-23)
(0 0 0 -1.51938203081 -6.01770630804e-23 -1.23340313853e-23 -0.0113108065415 -2.27394889523e-24 8.70803567479e-23)
(0 0 0 -1.70973138825 -4.96812362548e-23 -1.94681321589e-23 -0.0105247283226 -1.6124061492e-24 8.37666435386e-23)
(0 0 0 -1.93287713414 -3.98014399521e-23 -2.81403777173e-23 -0.00968875615909 -1.09699577908e-24 7.90100120565e-23)
(0 0 0 -2.18866530281 -3.07053712936e-23 -3.85554066848e-23 -0.00877919712335 -7.09708493808e-25 7.26260542752e-23)
(1.98488038507e-15 6.56741829106e-39 0 -2.4629476442 -2.25587946174e-23 -5.05840871363e-23 -0.00776149158824 -4.2983586386e-25 6.44401202078e-23)
(0 0 0 -2.70713065889 -1.55344151168e-23 -6.30969119715e-23 -0.00658884031037 -2.39141662172e-25 5.43835579215e-23)
(0 0 0 -2.81782261812 -9.8086979479e-24 -7.30060945003e-23 -0.0052219784328 -1.18958867752e-25 4.27260818964e-23)
(0 0 0 -2.67352117379 -5.50586608064e-24 -7.57581062673e-23 -0.00370876640493 -5.06257790743e-26 3.0405183745e-23)
(0 0 0 -2.24833359571 -2.62953400948e-24 -6.88094744055e-23 -0.00226174516981 -1.72445251094e-26 1.89693069945e-23)
(0 0 0 -1.64679286038 -9.90610654572e-25 -5.38803407229e-23 -0.00112414454906 -4.05374811934e-27 9.79562276666e-24)
(0 0 0 -0.98968511225 -2.49296801588e-25 -3.42818162619e-23 -0.000389956981861 -4.37009846559e-28 3.54799823223e-24)
(0 0 0 -0.411575047597 -2.82066690641e-26 -1.49549828572e-23 -4.22211272488e-05 -1.17617869341e-30 4.04105971042e-25)
(0 0 0 -0.00994372901123 2.6172489991e-23 -3.27113032807e-24 -0.0470093605699 -6.34338596328e-25 1.0598190016e-22)
(0 0 0 -0.029195586086 5.98355033343e-23 -9.25180230419e-24 -0.0470423264447 -5.45083681094e-24 1.00988929875e-22)
(0 0 0 -0.0471118204755 9.23077565137e-23 -1.40535271776e-23 -0.0471109357972 -1.40780125534e-23 9.22993962343e-23)
(0 0 0 -0.0636547280811 1.16291964083e-22 -1.75650482658e-23 -0.0472169891776 -2.53238466738e-23 8.11042317638e-23)
(0 0 0 -0.07893999481 1.31166146499e-22 -1.97115534622e-23 -0.0473553739585 -3.80904356083e-23 6.85687714924e-23)
(0 0 0 -0.0931769185515 1.3714234959e-22 -2.05780446454e-23 -0.0475127343619 -5.13472107502e-23 5.56721413887e-23)
(0 3.24600309211e-37 4.05750386514e-38 -0.106615309432 1.35054284406e-22 -2.03120032648e-23 -0.0476693189328 -6.42406231938e-23 4.32291884623e-23)
(0 0 0 -0.119510823734 1.26018112368e-22 -1.90482134537e-23 -0.0478019126591 -7.61899930247e-23 3.18190859208e-23)
(0 0 0 -0.132107029475 1.11231578654e-22 -1.69640041707e-23 -0.0478865916627 -8.66923096945e-23 2.18827387291e-23)
(0 0 0 -0.144628455749 9.20858734941e-23 -1.42291745421e-23 -0.0479008566649 -9.53408364615e-23 1.36855642025e-23)
(0 0 0 -0.157279578817 6.98623724819e-23 -1.09737546227e-23 -0.047825122827 -1.02042601229e-22 7.38273359561e-24)
(0 0 0 -0.170246527425 4.56381336642e-23 -7.32166597464e-24 -0.0476436769186 -1.0679806124e-22 3.03072928198e-24)
(0 0 0 -0.183699799996 2.05094600418e-23 -3.4040183848e-24 -0.047345216907 -1.09535762636e-22 6.05113568962e-25)
(0 0 0 -0.197797226276 -4.58511790182e-24 6.7679672962e-25 -0.0469230595782 -1.10459803993e-22 2.72440581375e-26)
(0 0 0 -0.212686911432 -2.89545542571e-23 4.82681196629e-24 -0.0463750756891 -1.09714176744e-22 1.17538244152e-24)
(0 0 0 -0.228510142293 -5.20037206237e-23 8.96162063793e-24 -0.0457033980096 -1.07464873127e-22 3.89889330053e-24)
(0 0 0 -0.24540433753 -7.3256208921e-23 1.30098408057e-23 -0.0449139445539 -1.03959796042e-22 8.03027672571e-24)
(0 0 0 -0.263506155854 -9.23797441028e-23 1.69096889552e-23 -0.0440158009 -9.94078466388e-23 1.33907120378e-23)
(0 0 0 -0.282954878937 -1.09144618001e-22 2.06067570366e-23 -0.0430205094694 -9.4038473453e-23 1.97970487429e-23)
(0 0 0 -0.303896181023 -1.23392628919e-22 2.40532925924e-23 -0.0419413156448 -8.80617883176e-23 2.70708626632e-23)
(5.91906212676e-15 6.26705079777e-37 0 -0.326486394979 -1.35137665646e-22 2.72056054026e-23 -0.040792418224 -8.16771870497e-23 3.5030710174e-23)
(0 0 0 -0.350897393109 -1.44318386091e-22 3.0027158466e-23 -0.0395882669235 -7.50486584319e-23 4.35120668732e-23)
(0 -3.44230657018e-37 -4.30288321272e-38 -0.377322225409 -1.50973610346e-22 3.24738229022e-23 -0.0383429408317 -6.83490304358e-23 5.23527192118e-23)
(0 0 0 -0.405981701548 -1.55370896385e-22 3.45188278183e-23 -0.0370696299881 -6.16777796683e-23 6.13872154364e-23)
(0 0 0 -0.43713216763 -1.57497459859e-22 3.61141612691e-23 -0.0357802320067 -5.51688985712e-23 7.04820406098e-23)
(-3.74337830515e-15 0 -9.9086398703e-38 -0.471074823305 -1.57547267267e-22 3.72121919283e-23 -0.0344850642906 -4.89217462375e-23 7.94968917101e-23)
(3.92348396765e-15 4.15415023578e-37 1.03853755894e-37 -0.508167051847 -1.5577825262e-22 3.77728147217e-23 -0.0331926835856 -4.29866426244e-23 8.82929744645e-23)
(0 0 0 -0.548836405495 -1.52168923886e-22 3.77418721707e-23 -0.0319097981271 -3.74194524822e-23 9.67552597791e-23)
(-4.31010855851e-15 -2.28175247206e-37 -1.14087623603e-37 -0.593598117325 -1.4703871522e-22 3.70486869315e-23 -0.0306412537335 -3.22689103963e-23 1.0475925008e-22)
(-4.51748138955e-15 0 -1.19576736736e-37 -0.643077311132 -1.40663897271e-22 3.56203649754e-23 -0.0293900722604 -2.75573309458e-23 1.12188796546e-22)
(-4.73483157763e-15 -1.25329948311e-37 -2.50659896622e-37 -0.698037475404 -1.33174976693e-22 3.33910172394e-23 -0.0281575212657 -2.32718840182e-23 1.18933218506e-22)
(0 0 0 -0.759417269709 -1.24792954107e-22 3.02580354693e-23 -0.0269431929095 -1.94220576288e-23 1.24878570424e-22)
(0 0 0 -0.828378322851 -1.15631565347e-22 2.61004502665e-23 -0.0257450708223 -1.6003726087e-23 1.29917968209e-22)
(0 0 0 -0.906367259701 -1.05888565118e-22 2.07678323443e-23 -0.0245595622208 -1.30062655054e-23 1.33935773397e-22)
(0 7.56236296387e-38 0 -0.99519539092 -9.57802739682e-23 1.40807616865e-23 -0.0233814690322 -1.04075928721e-23 1.36813328526e-22)
(0 0 0 -1.09713825894 -8.54506595473e-23 5.81154212544e-24 -0.0222038637178 -8.1826872513e-24 1.38423096299e-22)
(0 0 0 -1.21505165491 -7.50701293979e-23 -4.32666694906e-24 -0.02101781835 -6.30248095467e-24 1.3862291233e-22)
(-3.28951357207e-15 -2.17681748124e-38 -1.74145398499e-37 -1.35248293061 -6.48157466529e-23 -1.67160611885e-23 -0.0198119039811 -4.74234588654e-24 1.37252482317e-22)
(0 0 0 -1.51370513237 -5.48404898223e-23 -3.18362963567e-23 -0.0185713157038 -3.47224764029e-24 1.34124776403e-22)
(0 0 0 -1.70345896712 -4.52708131591e-23 -5.02695283049e-23 -0.0172763672382 -2.45797429294e-24 1.29023663275e-22)
(0 0 0 -1.92580151306 -3.62628928093e-23 -7.26790289816e-23 -0.0158999092012 -1.6703741878e-24 1.216918151e-22)
(0 0 0 -2.18047554901 -2.79686202649e-23 -9.95762336906e-23 -0.0144030313916 -1.07852963648e-24 1.1184528152e-22)
(-1.04018960066e-15 0 -1.10134357894e-37 -2.45319010773 -2.05389787356e-23 -1.30617911515e-22 -0.0127289974747 -6.52175343514e-25 9.92163186481e-23)
(0 -1.80364479712e-39 -1.15433267016e-37 -2.69527402843 -1.41434986106e-23 -1.6285790233e-22 -0.0108011605459 -3.62216921717e-25 8.37025472971e-23)
(0 0 0 -2.80374136765 -8.93018053397e-24 -1.88308384784e-22 -0.00855588690755 -1.79682323748e-25 6.5732406496e-23)
(0 0 0 -2.65838266948 -5.01126065086e-24 -1.95266834892e-22 -0.00607332310094 -7.6288628197e-26 4.67612319037e-23)
(0 0 0 -2.23451539327 -2.39368092381e-24 -1.7726179673e-22 -0.00370246524044 -2.59450299554e-26 2.91706876289e-23)
(0 0 0 -1.6363293123 -9.02025432056e-25 -1.38766601496e-22 -0.00184001029297 -6.10303158716e-27 1.506540708e-23)
(0 0 0 -0.983367454317 -2.27117413233e-25 -8.82844847518e-23 -0.000638280908065 -6.59220516935e-28 5.45790425762e-24)
(-5.64585454383e-18 -9.12136996084e-45 -5.97778101754e-40 -0.408958057407 -2.57155351472e-26 -3.85120664746e-23 -6.91085909912e-05 -1.87289256766e-30 6.21796958389e-25)
(0 0 0 -0.00996244974632 2.3014152394e-23 -5.89850373792e-24 -0.0635044071114 -7.90541846995e-25 1.33594578637e-22)
(0 0 0 -0.0292548848455 5.25962295339e-23 -1.66674603907e-23 -0.0635532056512 -6.80045581378e-24 1.27273444989e-22)
(0 0 0 -0.0472178674265 8.11119563306e-23 -2.53161896613e-23 -0.0636538711751 -1.75698764817e-23 1.16276642014e-22)
(0 0 0 -0.0638097571543 1.02137525347e-22 -3.16301143268e-23 -0.0638088884629 -3.16283383717e-23 1.02122668824e-22)
(0 0 0 -0.0791369004102 1.15105022747e-22 -3.54900378682e-23 -0.0640122577343 -4.75769491165e-23 8.62716404651e-23)
(0 0 0 -0.0933977101577 1.20235628483e-22 -3.70447630209e-23 -0.0642474530841 -6.41406168815e-23 6.99719048919e-23)
(0 0 0 -0.10683230343 1.18260002119e-22 -3.65388839539e-23 -0.0644894535299 -8.02726670463e-23 5.42420890506e-23)
(0 0 0 -0.119689043528 1.10131293452e-22 -3.42534350518e-23 -0.0647082815383 -9.51844873383e-23 3.98573346057e-23)
(0 0 0 -0.132206830376 9.70070178079e-23 -3.04932260779e-23 -0.0648724441574 -1.08271217494e-22 2.7339822605e-23)
(0 0 0 -0.1446079619 8.01046363737e-23 -2.55443774597e-23 -0.0649516718764 -1.19132903228e-22 1.70357051765e-23)
(0 0 0 -0.15709683453 6.04733141344e-23 -1.966346306e-23 -0.0649188918386 -1.27592874366e-22 9.14503039198e-24)
(0 0 0 -0.169861374708 3.91780952193e-23 -1.30924141327e-23 -0.0647515568023 -1.33577564093e-22 3.71550534848e-24)
(0 0 0 -0.183075501968 1.71811472084e-23 -6.05046486321e-24 -0.0644324670022 -1.37103594348e-22 7.18578154281e-25)
(0 0 0 -0.196901832371 -4.76760359329e-24 1.27442361318e-24 -0.0639501877867 -1.38334912791e-22 4.28791017108e-26)
(0 0 0 -0.211494337528 -2.60181846063e-23 8.71363608636e-24 -0.0632991312323 -1.37475544476e-22 1.52770562946e-24)
(0 0 0 -0.227000929884 -4.60751936941e-23 1.61209552822e-23 -0.0624793492945 -1.34756081031e-22 4.98328526856e-24)
(0 0 0 -0.243566060028 -6.45560863257e-23 2.33703122844e-23 -0.0614960794328 -1.30444882685e-22 1.01909442989e-23)
(0 1.14097698451e-36 1.7827765383e-38 -0.261333455916 -8.11353523546e-23 3.03491795707e-23 -0.0603590850828 -1.24835930131e-22 1.69302749618e-23)
(0 0 0 -0.280449144494 -9.56504314526e-23 3.69669936905e-23 -0.0590818409745 -1.18182285042e-22 2.49680429871e-23)
(0 0 0 -0.301064891392 -1.07994357079e-22 4.313343686e-23 -0.0576806180585 -1.10766025346e-22 3.40813750868e-23)
(0 0 0 -0.323342190296 -1.18103939735e-22 4.87809671701e-23 -0.0561735272458 -1.0281205675e-22 4.40462741475e-23)
(0 0 0 -0.347456936832 -1.26018673889e-22 5.38476889652e-23 -0.0545795785798 -9.45208067835e-23 5.46552866414e-23)
(0 0 0 -0.373604935586 -1.31785944768e-22 5.82308021092e-23 -0.0529178066275 -8.6161617294e-23 6.57041768142e-23)
(0 0 0 -0.402008424914 -1.3552305425e-22 6.18908662624e-23 -0.0512065021896 -7.78363086566e-23 7.70060605704e-23)
(0 0 0 -0.432923862157 -1.37333750254e-22 6.47720679085e-23 -0.0494625767255 -6.96611622949e-23 8.8374563072e-23)
(0 0 0 -0.466651298489 -1.37342019742e-22 6.67523991402e-23 -0.0477010725068 -6.1822719582e-23 9.96440794735e-23)
(0 0 0 -0.503545796747 -1.35715833155e-22 6.77698266414e-23 -0.045934817653 -5.43662462435e-23 1.10652937383e-22)
(0 0 0 -0.544031515068 -1.32622057982e-22 6.77352014175e-23 -0.044174214348 -4.73544819984e-23 1.2124583249e-22)
(0 0 2.39153473485e-37 -0.588619305345 -1.28223380258e-22 6.65173327697e-23 -0.0424271402376 -4.08614627243e-23 1.31269096156e-22)
(0 0 0 -0.637928977589 -1.22664184959e-22 6.39987310224e-23 -0.0406989369642 -3.48998655495e-23 1.40586061175e-22)
(0 0 0 -0.692717775291 -1.16128614511e-22 6.00242978108e-23 -0.0389924574632 -2.94890891367e-23 1.49056466294e-22)
(0 0 0 -0.753917103713 -1.08785201791e-22 5.44219659211e-23 -0.037308141183 -2.46253255828e-23 1.56533694408e-22)
(0 0 0 -0.822680139372 -1.00802803058e-22 4.6978257523e-23 -0.0356440861222 -2.03000038712e-23 1.62877467146e-22)
(0 0 0 -0.900443508462 -9.23340982269e-23 3.74220147394e-23 -0.0339960838539 -1.65027985439e-23 1.67944886207e-22)
(0 0 0 -0.989006389591 -8.35282189493e-23 2.54301130026e-23 -0.0323575789563 -1.3206343833e-23 1.71583971698e-22)
(0 0 0 -1.0906291001 -7.45264271628e-23 1.05848216006e-23 -0.0307195024132 -1.03836551875e-23 1.73632244785e-22)
(-3.28951357166e-15 -4.35363496193e-38 -3.48290796954e-37 -1.20814753593 -6.54838772846e-23 -7.64129465894e-24 -0.0290699065355 -8.00128320902e-24 1.73909593229e-22)
(0 0 0 -1.34508184035 -5.65564321375e-23 -2.99260283408e-23 -0.0273932835442 -6.02338773051e-24 1.7220915814e-22)
(0 0 0 -1.50566598499 -4.78474877109e-23 -5.71214347041e-23 -0.0256693676561 -4.40917971461e-24 1.68298170677e-22)
(0 0 0 -1.694581739 -3.94912779913e-23 -9.02915769914e-23 -0.0238710642779 -3.12113641902e-24 1.61897411676e-22)
(0 0 0 -1.91579365389 -3.16281275822e-23 -1.30623154396e-22 -0.0219608915087 -2.12155917643e-24 1.52684363899e-22)
(0 0 0 -2.16889890473 -2.43852544282e-23 -1.79015544125e-22 -0.0198850600317 -1.36961644592e-24 1.40300011776e-22)
(0 0 0 -2.43940628297 -1.79015258604e-23 -2.34831136282e-22 -0.0175651719599 -8.2911368633e-25 1.24410594553e-22)
(0 0 0 -2.67853943016 -1.23175936243e-23 -2.92703303334e-22 -0.0148956778082 -4.61311745005e-25 1.04899125654e-22)
(0 0 0 -2.78389242348 -7.77088870213e-24 -3.38223581011e-22 -0.0117902843947 -2.28903446925e-25 8.2323935934e-23)
(0 0 0 -2.63707592643 -4.35930403436e-24 -3.50464510513e-22 -0.00836284099463 -9.73172310801e-26 5.85325745182e-23)
(6.57844621409e-16 1.36039079226e-40 6.96520085635e-38 -2.21509096292 -2.08208778349e-24 -3.17992471564e-22 -0.00509572800182 -3.3115142254e-26 3.65071444382e-23)
(0 0 0 -1.6216298432 -7.84562748639e-25 -2.489058394e-22 -0.00253201266899 -7.78329084776e-27 1.88567656239e-23)
(0 0 0 -0.974493733164 -1.97459781446e-25 -1.58374802766e-22 -0.000878321247461 -8.40921758329e-28 6.83294422496e-24)
(0 0 0 -0.405282279382 -2.23498606738e-26 -6.90990851867e-23 -9.51006916846e-05 -2.4073329025e-30 7.78603802971e-25)
(0 0 0 -0.00998697046442 1.94661579989e-23 -8.881715121e-24 -0.0787513445561 -8.8631900085e-25 1.50740896509e-22)
(0 0 0 -0.0293323258971 4.44801252715e-23 -2.50925607362e-23 -0.0788125738174 -7.62505970813e-24 1.43614561429e-22)
(0 0 0 -0.0473562254463 6.85773197337e-23 -3.80851458394e-23 -0.0789393538296 -1.97132157029e-23 1.31149644101e-22)
(0 0 0 -0.0640131151813 8.62804856767e-23 -4.75659685757e-23 -0.0791362213185 -3.54970737394e-23 1.1510000048e-22)
(0 0 0 -0.0793989142744 9.71196597845e-23 -5.33708525691e-23 -0.079398219996 -5.33855366604e-23 9.71199917194e-23)
(0 0 0 -0.0936994126663 1.01283936066e-22 -5.56977583036e-23 -0.0797079505263 -7.19507707964e-23 7.8642925945e-23)
(0 0 0 -0.107143075447 9.93922287872e-23 -5.48992804388e-23 -0.0800374705349 -9.0045848981e-23 6.08312921713e-23)
(0 0 0 -0.119969072632 9.23264645922e-23 -5.14147833577e-23 -0.0803521536824 -1.06771408002e-22 4.45627256607e-23)
(0 0 0 -0.132409932622 8.10471774577e-23 -4.57243147038e-23 -0.0806146163059 -1.21425974137e-22 3.04499606743e-23)
(0 0 0 -0.144684269714 6.65819407558e-23 -3.82425674708e-23 -0.0807879435739 -1.33626784109e-22 1.887657974e-23)
(0 0 0 -0.15699522188 4.99001929307e-23 -2.93777093777e-23 -0.0808380901171 -1.431232968e-22 1.00482729048e-23)
(0 0 0 -0.16953162995 3.18907604725e-23 -1.94954403609e-23 -0.0807355695685 -1.49860192337e-22 4.01759317466e-24)
(0 0 0 -0.182470276288 1.33420400383e-23 -8.92147178046e-24 -0.0804565834809 -1.5390418498e-22 7.3504578611e-25)
(0 0 0 -0.19597836548 -5.09813352255e-24 2.04834400028e-24 -0.0799837055663 -1.55373331669e-22 6.59820741624e-26)
(0 0 0 -0.210215931035 -2.28848078396e-23 1.31751771982e-23 -0.0793061962145 -1.5445148285e-22 1.82062759501e-24)
(0 0 0 -0.225338118033 -3.95945116451e-23 2.42372123157e-23 -0.0784199932944 -1.5148247512e-22 5.77167289065e-24)
(0 0 0 -0.241497421901 -5.49477739795e-23 3.50522680175e-23 -0.0773274123475 -1.46749736608e-22 1.16707880518e-23)
(0 0 0 -0.258846023652 -6.86853151356e-23 4.5459441469e-23 -0.0760365884621 -1.40530435277e-22 1.92584551195e-23)
(0 0 0 -0.277538381905 -8.06715299874e-23 5.53179108721e-23 -0.0745606993916 -1.33156513442e-22 2.82818998879e-23)
(0 0 0 -0.297734246237 -9.08083354836e-23 6.45058635298e-23 -0.0729170187748 -1.24903042485e-22 3.847953554e-23)
(-6.5023332683e-15 -3.44230657017e-37 -8.60576642543e-38 -0.319602253885 -9.90543443055e-23 7.29148710748e-23 -0.0711258579662 -1.16041854133e-22 4.96197070074e-23)
(0 0 0 -0.343324269756 -1.05570418322e-22 8.04478076918e-23 -0.0692094602072 -1.06807417881e-22 6.14501439368e-23)
(7.14308061423e-15 3.78151539072e-37 1.89075769536e-37 -0.369100640123 -1.10285455291e-22 8.6999366627e-23 -0.0671909102631 -9.74270272682e-23 7.3765457678e-23)
(-3.74337830511e-15 -3.96345594808e-37 0 -0.39715655308 -1.13204266038e-22 9.24733553669e-23 -0.0650931178658 -8.80800772453e-23 8.63585345793e-23)
(0 0 0 -0.427749746612 -1.1461901818e-22 9.67606000487e-23 -0.062937920888 -7.89256509734e-23 9.90227514301e-23)
(4.11225507827e-15 2.17700971176e-37 2.17700971176e-37 -0.461179883434 -1.14625719366e-22 9.97552674038e-23 -0.0607453404789 -7.00862744096e-23 1.115705353e-22)
(4.31010855843e-15 2.28175247202e-37 2.28175247202e-37 -0.497800026255 -1.13227386724e-22 1.01321984895e-22 -0.0585330037168 -6.16708594121e-23 1.23837444562e-22)
(0 0 0 -0.538030811642 -1.10551681554e-22 1.01296805014e-22 -0.0563157338165 -5.37699891605e-23 1.35645898252e-22)
(0 0 0 -0.582378143931 -1.06818667484e-22 9.95250035484e-23 -0.0541052938412 -4.64258728951e-23 1.46834388296e-22)
(0 0 0 -0.631455531214 -1.02177246984e-22 9.58283020917e-23 -0.0519102596996 -3.96664086286e-23 1.57237943777e-22)
(0 0 0 -0.686012576028 -9.67346279369e-23 8.99481828973e-23 -0.0497359896706 -3.35292710007e-23 1.66697946466e-22)
(0 0 0 -0.746971628334 -9.06372045181e-23 8.16068911406e-23 -0.0475846533073 -2.80187344066e-23 1.75064398106e-22)
(0 0 0 -0.815475183379 -8.3992362885e-23 7.05039453931e-23 -0.0454552782766 -2.31136421409e-23 1.82174168976e-22)
(-2.99443821099e-15 0 -3.17048477903e-37 -0.892947148459 -7.69321985817e-23 5.62321825522e-23 -0.0433437695678 -1.88001247379e-23 1.87865503285e-22)
(0 0 0 -0.981171232541 -6.96043530671e-23 3.82945476773e-23 -0.0412428480723 -1.50535536894e-23 1.91963185377e-22)
(0 0 0 -1.08238834628 -6.21174538226e-23 1.60693439821e-23 -0.0391418408148 -1.18408354716e-23 1.9428228022e-22)
(0 0 0 -1.19940907528 -5.45876242621e-23 -1.12485142567e-23 -0.037026226225 -9.1285796894e-24 1.94617416459e-22)
(0 0 0 -1.33571903557 -4.71341405725e-23 -4.4666761643e-23 -0.0348767819948 -6.87306852666e-24 1.92734906505e-22)
(0 0 0 -1.49550273415 -3.98711384362e-23 -8.54765467665e-23 -0.0326680767221 -5.03172773888e-24 1.88367254047e-22)
(0 0 0 -1.68336748738 -3.29077382885e-23 -1.35273936745e-22 -0.030365850452 -3.56276238521e-24 1.81197165044e-22)
(0 0 0 -1.90316119605 -2.63453022944e-23 -1.95818877079e-22 -0.0279225026531 -2.42110512912e-24 1.70860869988e-22)