/*--------------------------------*- C++ -*----------------------------------*\
| =========                 |                                                 |
| \\      /  F ield         | OpenFOAM: The Open Source CFD Toolbox           |
|  \\    /   O peration     | Version:  3.0.1                                 |
|   \\  /    A nd           | Web:      www.OpenFOAM.org                      |
|    \\/     M anipulation  |                                                 |
\*---------------------------------------------------------------------------*/
FoamFile
{
    version     2.0;
    format      ascii;
    class       surfaceScalarField;
    location    "50000";
    object      phi;
}
// * * * * * * * * * * * * * * * * * * * * * * * * * * * * * * * * * * * * * //

dimensions      [0 3 -1 0 0 0 0];

internalField   nonuniform List<scalar> 
4900
(
5.63213749811e-16
-5.64127857603e-16
1.08845090433e-15
-5.25219782368e-16
1.5675477643e-15
-4.79065359591e-16
1.99602594606e-15
-4.28577010624e-16
2.37197762936e-15
-3.76054069594e-16
2.69535700996e-15
-3.23523369005e-16
2.9674011018e-15
-2.72139688713e-16
3.19015185786e-15
-2.23008648732e-16
3.36669577264e-15
-1.76565058712e-16
3.50009956043e-15
-1.3338922077e-16
3.59383307902e-15
-9.36761752211e-17
3.65130843536e-15
-5.74665735691e-17
3.67602978306e-15
-2.47996263581e-17
3.67161605722e-15
4.4660582836e-18
3.64126027869e-15
3.03983453852e-17
3.58810161053e-15
5.3194657423e-17
3.51510707732e-15
7.30300245531e-17
3.42504516783e-15
9.01012164544e-17
3.32039763287e-15
1.04603612454e-16
3.20358253439e-15
1.16773236472e-16
3.07672871573e-15
1.26804733041e-16
2.94179717387e-15
1.34881572633e-16
2.80056696316e-15
1.41180645369e-16
2.6546842073e-15
1.45897866091e-16
2.50554086155e-15
1.49166471559e-16
2.35441592875e-15
1.51149616407e-16
2.20241e-15
1.51979447869e-16
2.05060872299e-15
1.51781004668e-16
1.8999164539e-15
1.50669011768e-16
1.75119331724e-15
1.48749236527e-16
1.60510813586e-15
1.46110289038e-16
1.4622533302e-15
1.42829944211e-16
1.323248656e-15
1.38982076421e-16
1.18860537315e-15
1.34623738036e-16
1.05881270521e-15
1.29804946195e-16
9.34262711146e-16
1.24561707501e-16
8.15351475577e-16
1.18921595478e-16
7.02468507271e-16
1.12895112855e-16
5.95999543892e-16
1.06478397618e-16
4.9634540842e-16
9.96440289003e-17
4.04016977595e-16
9.23392653504e-17
3.19551183362e-16
8.44766136316e-17
2.43615544067e-16
7.59336199616e-17
1.77046681741e-16
6.65699554664e-17
1.20728630033e-16
5.63116010907e-17
7.53963900195e-17
4.533451985e-17
4.12228962633e-17
3.41711604857e-17
1.77903288793e-17
2.3431942913e-17
4.33477744956e-18
1.34569948815e-17
4.33449735751e-18
5.24869383421e-16
-1.08907761447e-15
1.01393719547e-15
-1.01437081159e-15
1.46007295198e-15
-9.25279040407e-16
1.85911527205e-15
-8.27699389466e-16
2.20920552453e-15
-7.26232044569e-16
2.51015135701e-15
-6.24666575228e-16
2.76344397564e-15
-5.2534650644e-16
2.97082889899e-15
-4.30330540145e-16
3.13495265887e-15
-3.40744688802e-16
3.25882536899e-15
-2.57421136032e-16
3.34580792316e-15
-1.8069805773e-16
3.39908544412e-15
-1.10809383553e-16
3.42186333228e-15
-4.77385346328e-17
3.41762693807e-15
8.75392885242e-18
3.38917591944e-15
5.88036039886e-17
3.33962958876e-15
1.0279182446e-16
3.27155502267e-15
1.4105127403e-16
3.18759979032e-15
1.74004887323e-16
3.09022844739e-15
2.0202615679e-16
2.98153900574e-15
2.25516499975e-16
2.8634529275e-15
2.44850791405e-16
2.73789304372e-15
2.60417573683e-16
2.60651899709e-15
2.7257556463e-16
2.47068812796e-15
2.81652480462e-16
2.33189695681e-15
2.87968727918e-16
2.19123105411e-15
2.91794909474e-16
2.04977472664e-15
2.93409938787e-16
1.90850449474e-15
2.93038688904e-16
1.76829669398e-15
2.90907502909e-16
1.62991582505e-15
2.87208248314e-16
1.49388772647e-15
2.82117416392e-16
1.36094287001e-15
2.75794994306e-16
1.23153063844e-15
2.68367653126e-16
1.10618651367e-15
2.59955230175e-16
9.85328549027e-16
2.50651673447e-16
8.69371260831e-16
2.4053072446e-16
7.58640091978e-16
2.29639868799e-16
6.53550220047e-16
2.18002098847e-16
5.54431213521e-16
2.05606476503e-16
4.61664269069e-16
1.9240164031e-16
3.7570663273e-16
1.78285845744e-16
2.97089702589e-16
1.63090959068e-16
2.26425144206e-16
1.46580322262e-16
1.64510270884e-16
1.28485185826e-16
1.12150625063e-16
1.08665465656e-16
7.00217886574e-17
8.74665155506e-17
3.82751070607e-17
6.59179231639e-17
1.65136621888e-17
4.51949114398e-17
4.02024040345e-18
2.59503746821e-17
8.35466483049e-18
4.78816113635e-16
-1.56795503688e-15
9.24930585743e-16
-1.4603906474e-15
1.33182491754e-15
-1.33212282736e-15
1.69572204222e-15
-1.19152669443e-15
2.01483394452e-15
-1.04537403127e-15
2.28901174662e-15
-8.98932167128e-16
2.51958285324e-15
-7.5585388001e-16
2.70814807029e-15
-6.18949507788e-16
2.85726049108e-15
-4.8993138919e-16
2.96971357397e-15
-3.69912438209e-16
3.04850395731e-15
-2.59448982568e-16
3.09659260434e-15
-1.58861382768e-16
3.11698254315e-15
-6.80931624796e-17
3.11267736499e-15
1.31058181957e-17
3.08637726158e-15
8.50602836224e-17
3.04092921122e-15
1.48285260258e-16
2.97875869176e-15
2.0327499767e-16
2.9021180424e-15
2.5059778636e-16
2.81335054435e-15
2.90842495144e-16
2.71425688058e-15
3.24571082327e-16
2.60669896832e-15
3.52350405392e-16
2.49239636055e-15
3.74724569396e-16
2.3728362793e-15
3.9219767311e-16
2.24928129176e-15
4.05234022649e-16
2.12297683943e-15
4.14300184295e-16
1.99500391541e-15
4.19801330713e-16
1.86622714031e-15
4.22113996844e-16
1.737658205e-15
4.21585116559e-16
1.61006342622e-15
4.18531625913e-16
1.48412752533e-15
4.13223920368e-16
1.36039806524e-15
4.05916355482e-16
1.239337722e-15
3.96829685673e-16
1.12153002798e-15
3.86162507655e-16
1.00739993851e-15
3.74074866357e-16
8.97359798092e-16
3.60702292703e-16
7.91736711651e-16
3.46148195779e-16
6.90879934025e-16
3.30484006443e-16
5.95155157455e-16
3.13742575874e-16
5.04851632383e-16
2.95906058741e-16
4.20362818103e-16
2.76901335839e-16
3.42056624857e-16
2.56579307212e-16
2.70443850992e-16
2.34699689644e-16
2.06114810194e-16
2.10922431547e-16
1.49736512312e-16
1.84861581644e-16
1.02084572435e-16
1.56323156813e-16
6.37419001569e-17
1.25811730873e-16
3.48511764039e-17
9.48117689191e-17
1.50408834796e-17
6.50065088735e-17
3.66400457816e-18
3.73281350144e-17
1.2019031709e-17
4.28431670765e-16
-1.99644846424e-15
8.27471638634e-16
-1.85940099758e-15
1.19131433082e-15
-1.6959619919e-15
1.51659757455e-15
-1.51676986624e-15
1.8016669893e-15
-1.33049567315e-15
2.04643661995e-15
-1.14378955022e-15
2.25195341129e-15
-9.61426131554e-16
2.41984894936e-15
-7.86911920644e-16
2.55235645726e-15
-6.22487558118e-16
2.65205550092e-15
-4.69563464388e-16
2.72158656843e-15
-3.28940841529e-16
2.76368301662e-15
-2.00914383157e-16
2.78110310541e-15
-8.54634847408e-17
2.77650507008e-15
1.77368761516e-17
2.75243504858e-15
1.09167851603e-16
2.71130003524e-15
1.89473346322e-16
2.65534235102e-15
2.5926840994e-16
2.58665034661e-15
3.19331987638e-16
2.50715438246e-15
3.70379167679e-16
2.41860494254e-15
4.13164441068e-16
2.3225862593e-15
4.48373618183e-16
2.22060192603e-15
4.76723362768e-16
2.11397014978e-15
4.98855624111e-16
2.00380912966e-15
5.15368286869e-16
1.8912759774e-15
5.26851085287e-16
1.77728555495e-15
5.33815360691e-16
1.66263501236e-15
5.36737557796e-16
1.54817811224e-15
5.36063453232e-16
1.43448734309e-15
5.32178530021e-16
1.32227918311e-15
5.25443709825e-16
1.21203933832e-15
5.16173309232e-16
1.10425023429e-15
5.04643433114e-16
9.99311248426e-16
4.9109836097e-16
8.97633160222e-16
4.75747585666e-16
7.995682294e-16
4.58761502267e-16
7.05451589906e-16
4.40271713926e-16
6.15585601623e-16
4.20366148025e-16
5.30243753699e-16
3.9908271732e-16
4.49736601125e-16
3.76400835612e-16
3.74415955023e-16
3.52226276719e-16
3.04621004496e-16
3.26368731749e-16
2.40794330798e-16
2.98520882177e-16
1.83464785475e-16
2.68251233877e-16
1.33260406879e-16
2.35072252844e-16
9.08417113937e-17
1.98747072006e-16
5.67251347769e-17
1.59931722617e-16
3.10108844616e-17
1.20517786479e-16
1.33828897004e-17
8.26335164682e-17
3.2595639911e-18
4.74518266635e-17
1.52785767036e-17
3.75962537428e-16
-2.37231344737e-15
7.26060383132e-16
-2.20941133951e-15
1.04523229713e-15
-2.01503357829e-15
1.33037408393e-15
-1.80182863465e-15
1.58001861209e-15
-1.58014664634e-15
1.79409071804e-15
-1.35790586386e-15
1.97346691208e-15
-1.14085189389e-15
2.11970870961e-15
-9.3316298638e-16
2.23478401589e-15
-7.37552342249e-16
2.32096414559e-15
-5.55710176283e-16
2.38066025058e-15
-3.88600586734e-16
2.41632677084e-15
-2.36545919516e-16
2.4304149812e-15
-9.95156329784e-17
2.42528956125e-15
2.29004036774e-17
2.4032457813e-15
1.31255966281e-16
2.36632349655e-15
2.26346600024e-16
2.31665356084e-15
3.08978657793e-16
2.25598708762e-15
3.8002549053e-16
2.18601887396e-15
4.40375826991e-16
2.10825078808e-15
4.90913907751e-16
2.02415016217e-15
5.32503447091e-16
1.93489652004e-15
5.6595610271e-16
1.84165853713e-15
5.92054507183e-16
1.74553187183e-15
6.11524646376e-16
1.64736550502e-15
6.25040770536e-16
1.54792445323e-15
6.33219204715e-16
1.44798219347e-15
6.36634800048e-16
1.348242481e-15
6.35798749046e-16
1.24926938328e-15
6.31174757269e-16
1.15156073485e-15
6.23178938442e-16
1.05557037096e-15
6.12189865969e-16
9.61677561203e-16
5.98526134503e-16
8.70284261614e-16
5.82480376034e-16
7.81730452619e-16
5.64296439868e-16
6.96309998549e-16
5.44172854754e-16
6.14305927423e-16
5.22263677149e-16
5.359894011e-16
4.98671462879e-16
4.61620497189e-16
4.73439320282e-16
3.91483673516e-16
4.46541477963e-16
3.25858888744e-16
4.17861721064e-16
2.65047699634e-16
3.87173449166e-16
2.09453219035e-16
3.54111822749e-16
1.59517418598e-16
3.18165124528e-16
1.15821479589e-16
2.78761869961e-16
7.8935189393e-17
2.35634950198e-16
4.92877118933e-17
1.89582556004e-16
2.69554035153e-17
1.42853394952e-16
1.1635610681e-17
9.79524481387e-17
2.83586077506e-18
5.62534534596e-17
1.81143358107e-17
3.23509788297e-16
-2.695681903e-15
6.24513354665e-16
-2.51048446985e-15
8.98820760755e-16
-2.28931971103e-15
1.14367328579e-15
-2.04659670052e-15
1.35779268035e-15
-1.79422628433e-15
1.5410630907e-15
-1.54117078676e-15
1.69422119294e-15
-1.29405024845e-15
1.8186629461e-15
-1.0576016859e-15
1.91613350778e-15
-8.34989624357e-16
1.98864520635e-15
-6.2816773691e-16
2.03828902088e-15
-4.38216852127e-16
2.0671922441e-15
-2.65536461261e-16
2.07760737315e-15
-1.10007752499e-16
2.07164860886e-15
2.88089448013e-17
2.0513953345e-15
1.51644091423e-16
2.01852036861e-15
2.59272306439e-16
1.97483427807e-15
3.52712391947e-16
1.9219533343e-15
4.32947234309e-16
1.86129530225e-15
5.01054629362e-16
1.79413644603e-15
5.5801762283e-16
1.72174499002e-15
6.04868396127e-16
1.64512127325e-15
6.42499155292e-16
1.56530768107e-15
6.71846832756e-16
1.48311695858e-15
6.93692967908e-16
1.39932531239e-15
7.0883386257e-16
1.31462086422e-15
7.17951954683e-16
1.22956886926e-15
7.21697833496e-16
1.14469876571e-15
7.20659035234e-16
1.06052875853e-15
7.153563072e-16
9.77528627709e-16
7.06259002896e-16
8.9588050517e-16
6.93774302319e-16
8.16108318291e-16
6.78285944913e-16
7.38485024955e-16
6.60107854761e-16
6.6327646778e-16
6.39511948735e-16
5.90737754324e-16
6.16722275784e-16
5.21104826135e-16
5.91909351657e-16
4.5460097105e-16
5.65184963916e-16
3.91444876058e-16
5.36595370592e-16
3.31867597927e-16
5.06110200454e-16
2.76129314511e-16
4.73595574919e-16
2.24505935916e-16
4.38792362578e-16
1.77326810683e-16
4.01285049588e-16
1.34992091746e-16
3.60494561448e-16
9.79917917404e-17
3.1578051324e-16
6.67580287478e-17
2.66857571405e-16
4.16850296655e-17
2.14659027132e-16
2.2803560051e-17
1.6173767255e-16
9.84862565698e-18
1.10906891286e-16
2.40092658839e-18
6.3700086171e-17
2.05156828732e-17
2.72082715474e-16
-2.96766002534e-15
5.25204420816e-16
-2.76361753999e-15
7.55829506609e-16
-2.51966099478e-15
9.61352574689e-16
-2.25204407916e-15
1.14077276914e-15
-1.97358325777e-15
1.29396724367e-15
-1.69432150465e-15
1.42151862431e-15
-1.4216043298e-15
1.52462708571e-15
-1.16070500454e-15
1.60481831531e-15
-9.15143973017e-16
1.66382966824e-15
-6.87130539115e-16
1.70351474204e-15
-4.77851481839e-16
1.72576854528e-15
-2.87754217711e-16
1.73252332456e-15
-1.16714186941e-16
1.72559267639e-15
3.57851075121e-17
1.70664841366e-15
1.70535779434e-16
1.67736872561e-15
2.88506746343e-16
1.63923681196e-15
3.90791065606e-16
1.593688027e-15
4.78539170847e-16
1.54186302163e-15
5.52900024738e-16
1.48487929011e-15
6.15010067254e-16
1.42376124027e-15
6.66001864553e-16
1.35938640518e-15
7.06897152405e-16
1.2924846314e-15
7.3870783476e-16
1.22382821385e-15
7.62325849581e-16
1.15401368501e-15
7.78631224956e-16
1.08356560165e-15
7.88376750641e-16
1.01301639507e-15
7.92273011617e-16
9.42745158065e-16
7.90952006691e-16
8.73064157519e-16
7.84982925587e-16
8.04402927243e-16
7.74895889957e-16
7.37035776065e-16
7.61128692219e-16
6.71227897504e-16
7.44086314494e-16
6.07206726708e-16
7.241169923e-16
5.45222285428e-16
7.01508845805e-16
4.85454435597e-16
6.76502806019e-16
4.28070515862e-16
6.49280291004e-16
3.73276856933e-16
6.19963243672e-16
3.21286017989e-16
5.88599031472e-16
2.72259188673e-16
5.55148650297e-16
2.26400049641e-16
5.19459448491e-16
1.83952394086e-16
4.81246573779e-16
1.45181075636e-16
4.40051488232e-16
1.10432230551e-16
3.95241431373e-16
8.00837614287e-17
3.46122645975e-16
5.45396601776e-17
2.92407545883e-16
3.40486420178e-17
2.35151199036e-16
1.86272204103e-17
1.7716024877e-16
8.04810354378e-18
1.21487288517e-16
1.96404115278e-18
6.97845514575e-17
2.24794992504e-17
2.23014809481e-16
-3.19035590938e-15
4.30257588582e-16
-2.97101293539e-15
6.18894523394e-16
-2.70827553561e-15
7.868282021e-16
-2.41997033797e-15
9.33079587301e-16
-2.11981301633e-15
1.05753249201e-15
-1.81875784721e-15
1.16063254111e-15
-1.52471683573e-15
1.24338482117e-15
-1.24345691652e-15
1.30706953962e-15
-9.78801500726e-16
1.35316484755e-15
-7.33197735833e-16
1.38328730467e-15
-5.07926224884e-16
1.3989778085e-15
-3.03492669246e-16
1.40199982359e-15
-1.19692992703e-16
1.39388390014e-15
4.39508290235e-17
1.37613034299e-15
1.88342510643e-16
1.35003511746e-15
3.14551867162e-16
1.3170225555e-15
4.23848439195e-16
1.27815643226e-15
5.17422306404e-16
1.23449473519e-15
5.96581425896e-16
1.18694659762e-15
6.62573023193e-16
1.13631211293e-15
7.16604938255e-16
1.08332873675e-15
7.59847282631e-16
1.02862070737e-15
7.93358733167e-16
9.72818979795e-16
8.18156468544e-16
9.16292859818e-16
8.35152912816e-16
8.59472297773e-16
8.45172673348e-16
8.02729885365e-16
8.4899012725e-16
7.46376987854e-16
8.47281375134e-16
6.90760977681e-16
8.40662531992e-16
6.35964735951e-16
8.29659841049e-16
5.82299689693e-16
8.14777995811e-16
5.29976878506e-16
7.96420594375e-16
4.79122179409e-16
7.74958534074e-16
4.2994280441e-16
7.50698904778e-16
3.82564281223e-16
7.23892801855e-16
3.37124504472e-16
6.94729092733e-16
2.93769952681e-16
6.63328445462e-16
2.52670347329e-16
6.29737922217e-16
2.13880899524e-16
5.93908592617e-16
1.77666720135e-16
5.5567914432e-16
1.44170541797e-16
5.14736736335e-16
1.13651498194e-16
4.70590990621e-16
8.63328558358e-17
4.22563277546e-16
6.25365283032e-17
3.69925328018e-16
4.25431877338e-17
3.12397521506e-16
2.65510723769e-17
2.51148537525e-16
1.45256064998e-17
1.89185839459e-16
6.27591332551e-18
1.29735378606e-16
1.53179139204e-18
7.4528814784e-17
2.40113810419e-17
1.76584873727e-16
-3.3669102527e-15
3.40686534816e-16
-3.13521037048e-15
4.89895872167e-16
-2.85742014243e-15
6.2241948214e-16
-2.55251779775e-15
7.37477170123e-16
-2.23490358406e-15
8.34923815071e-16
-1.91623259893e-15
9.15079145189e-16
-1.60491931236e-15
9.78736225226e-16
-1.30714976706e-15
1.02694240977e-15
-1.02701415515e-15
1.06092176679e-15
-7.67169909988e-16
1.08201757605e-15
-5.28998828709e-16
1.0916156703e-15
-3.13039555543e-16
1.09102616535e-15
-1.19149860448e-16
1.08170842861e-15
5.33183865568e-17
1.06483928145e-15
2.05257460194e-16
1.04161944822e-15
3.3780481212e-16
1.01312701474e-15
4.52364369321e-16
9.80327729379e-16
5.50236474726e-16
9.44088050831e-16
6.32843348907e-16
9.05166041943e-16
7.01520345771e-16
8.64182056094e-16
7.57561999586e-16
8.21760375282e-16
8.02273715108e-16
7.78285897624e-16
8.36758986521e-16
7.34331408397e-16
8.62137028976e-16
6.90112013211e-16
8.79350309966e-16
6.4600755984e-16
8.89301779089e-16
6.02228524965e-16
8.92795851959e-16
5.58972989052e-16
8.90553437942e-16
5.16403045601e-16
8.83215649059e-16
4.74728523942e-16
8.7134782392e-16
4.34011839062e-16
8.55456577322e-16
3.94449934816e-16
8.35979651824e-16
3.56113687081e-16
8.13287142965e-16
3.19126976592e-16
7.87698724631e-16
2.8356693601e-16
7.59463817083e-16
2.49514158902e-16
7.28776034642e-16
2.17095044741e-16
6.95756953716e-16
1.86405593676e-16
6.60449689144e-16
1.57514474116e-16
6.22797005702e-16
1.30576786023e-16
5.82622363254e-16
1.05732389797e-16
5.39594493404e-16
8.31312018236e-17
4.93194938982e-16
6.30118958285e-17
4.42716356395e-16
4.55262355703e-17
3.87405694903e-16
3.09189396534e-17
3.27008197557e-16
1.92717383638e-17
2.62792328785e-16
1.05402253774e-17
1.97917684201e-16
4.55520102748e-18
1.35719179981e-16
1.11237951574e-18
7.7970516141e-17
2.51234307829e-17
1.33403997486e-16
-3.50031408182e-15
2.57380567672e-16
-3.25901715033e-15
3.69865980308e-16
-2.96987712883e-15
4.6950810127e-16
-2.65221302769e-15
5.55648503086e-16
-2.32109400516e-15
6.28110463461e-16
-1.98874698304e-15
6.87072988361e-16
-1.66393375164e-15
7.33139872676e-16
-1.35327009938e-15
7.67099304611e-16
-1.06100943064e-15
7.89951758786e-16
-7.90027524482e-16
8.02782167711e-16
-5.41798731585e-16
8.06717130459e-16
-3.16925527786e-16
8.02857435993e-16
-1.15252399402e-16
7.92313987333e-16
6.38161959542e-17
7.76143818738e-16
2.21332788274e-16
7.55471520908e-16
3.5854790447e-16
7.31033568689e-16
4.76814556104e-16
7.03680265018e-16
5.77611270885e-16
6.7404093674e-16
6.62410701818e-16
6.42802243193e-16
7.32683866122e-16
6.10541266111e-16
7.8983996019e-16
5.77601056915e-16
8.35184673995e-16
5.44411077991e-16
8.69966206529e-16
5.11251529408e-16
8.95321505702e-16
4.78255022252e-16
9.12276187047e-16
4.45773281686e-16
9.21802453968e-16
4.13878316337e-16
9.24713673853e-16
3.82666656075e-16
9.21771948566e-16
3.52237822535e-16
9.13638118439e-16
3.22712602474e-16
9.00910403678e-16
2.94078608553e-16
8.84088753885e-16
2.66413691975e-16
8.63633450799e-16
2.39792698191e-16
8.39919547304e-16
2.14215452114e-16
8.1326384018e-16
1.89749821726e-16
7.83922706752e-16
1.66429426922e-16
7.52085488931e-16
1.44308844424e-16
7.17868507192e-16
1.23452349865e-16
6.81308210852e-16
1.03892290689e-16
6.42336122004e-16
8.57421882708e-17
6.00766092156e-16
6.90931624307e-17
5.56249712046e-16
5.40328740113e-17
5.08249441451e-16
4.07120814282e-17
4.5603862098e-16
2.92558744333e-17
3.98858603918e-16
1.9773712309e-17
3.3648547262e-16
1.22903550319e-17
2.70278387692e-16
6.71028996499e-18
2.03499065584e-16
2.89617588669e-18
1.39532743189e-16
7.06452090273e-19
8.01603867056e-17
2.58297704083e-17
9.37009733582e-17
-3.59400935755e-15
1.80670213561e-16
-3.34603257595e-15
2.59414478447e-16
-3.04866233265e-15
3.28892975811e-16
-2.72173638985e-15
3.88541450051e-16
-2.38077822685e-15
4.38165102995e-16
-2.03840726916e-15
4.77789446705e-16
-1.70360265845e-15
5.0789342696e-16
-1.38332489221e-15
5.289381595e-16
-1.08209748051e-15
5.4173898416e-16
-8.02856782365e-16
5.47123653733e-16
-5.47176256624e-16
5.45965211498e-16
-3.15761906909e-16
5.3915493139e-16
-1.08439655494e-16
5.2757953529e-16
7.53738690537e-17
5.12139798062e-16
2.36785601374e-16
4.9365996694e-16
3.77086544175e-16
4.72806229588e-16
4.97687347558e-16
4.50265471283e-16
6.00171922291e-16
4.2656472841e-16
6.86089793727e-16
4.02254064311e-16
7.57011125707e-16
3.77715953113e-16
8.14395413474e-16
3.53259551288e-16
8.5963210631e-16
3.29145384469e-16
8.94051649583e-16
3.05620550627e-16
9.18857354266e-16
2.82796091557e-16
9.35120924912e-16
2.6076983732e-16
9.43850138344e-16
2.39609329524e-16
9.45906306084e-16
2.19306707106e-16
9.42064759016e-16
1.99905397824e-16
9.33029476817e-16
1.81400128096e-16
9.1940379745e-16
1.63800530555e-16
9.01699206866e-16
1.47071953894e-16
8.80374261017e-16
1.31195975206e-16
8.55806313227e-16
1.16163106156e-16
8.28309440389e-16
1.01959752183e-16
7.98134455584e-16
8.85861470213e-17
7.65463696017e-16
7.6065085268e-17
7.30410168459e-16
6.43664443384e-17
6.93000208526e-16
5.35368404208e-17
6.53160690749e-16
4.36060460184e-17
6.10690900961e-16
3.46314200848e-17
5.65230788813e-16
2.66447135568e-17
5.16230533957e-16
1.97352513856e-17
4.62954249743e-16
1.39416007311e-17
4.04650368715e-16
9.28613965354e-18
3.411373041e-16
5.711395318e-18
2.7385236648e-16
3.09722724164e-18
2.06113226798e-16
1.33435057903e-18
1.41300326442e-16
3.24388327961e-19
8.11693748774e-17
2.6154092639e-17
5.74774215998e-17
-3.65147766464e-15
1.10795063886e-16
-3.39923490456e-15
1.58826962356e-16
-3.09674265864e-15
2.00881128192e-16
-2.76383225737e-15
2.36487792316e-16
-2.41642689089e-15
2.65500635305e-16
-2.06726065452e-15
2.87708002689e-16
-1.72585347634e-15
3.03427391808e-16
-1.39909687714e-15
3.12983233092e-16
-1.09166053507e-15
3.16889005011e-16
-8.06764470155e-16
3.15724941963e-16
-5.45999139132e-16
3.1013819117e-16
-3.1017061543e-16
3.00783629095e-16
-9.91098621242e-17
2.88392794716e-16
8.7781069417e-17
2.73678445086e-16
2.51579207462e-16
2.57188712502e-16
3.93587773278e-16
2.39553333782e-16
5.15334889221e-16
2.2130486872e-16
6.18436865028e-16
2.02843765963e-16
7.04527175854e-16
1.84592442822e-16
7.75237998445e-16
1.6684903361e-16
8.3211188396e-16
1.49884841657e-16
8.76618661343e-16
1.33838665024e-16
9.10114110828e-16
1.18839050676e-16
9.33875728146e-16
1.0495256416e-16
9.49031198798e-16
9.21891398287e-17
9.56617861986e-16
8.05104916115e-17
9.57545082658e-16
6.99578517499e-17
9.52623820514e-16
6.04365541666e-17
9.42559798741e-16
5.18363121962e-17
9.27966718167e-16
4.4162708797e-17
9.09376221274e-16
3.73104487174e-17
8.87237156998e-16
3.11781138955e-17
8.61926237312e-16
2.57260394866e-17
8.33756264371e-16
2.08790310073e-17
8.02968099998e-16
1.659882631e-17
7.69737408035e-16
1.28502368094e-17
7.34164785699e-16
9.58884699923e-18
6.96266550341e-16
6.79829807177e-18
6.55957812698e-16
4.4545508598e-18
6.1302878604e-16
2.58758973364e-18
5.67114493605e-16
1.14335469123e-18
5.1765570461e-16
1.7390382417e-19
4.63921887427e-16
-3.53635471492e-19
4.05180261496e-16
-5.12237386254e-19
3.41299215218e-16
-4.43912772661e-19
2.7378087429e-16
-2.86112206894e-19
2.05956974273e-16
-1.37671804442e-19
1.41152230903e-16
-3.76255726569e-20
8.10686580213e-17
2.61164856927e-17
2.48104526943e-17
-3.67612704374e-15
4.77230257867e-17
-3.42196368351e-15
6.80518788245e-17
-3.11710214272e-15
8.54438176714e-17
-2.78117792282e-15
9.94685164735e-17
-2.43049717965e-15
1.09957593697e-16
-2.07766655278e-15
1.16651540102e-16
-1.73258947919e-15
1.19680738367e-16
-1.40207500464e-15
1.19083949517e-16
-1.09108925055e-15
1.15228959497e-16
-8.0289978213e-16
1.08408973116e-16
-5.39159586115e-16
9.91368615449e-17
-3.00750302122e-16
8.77431465402e-17
-8.77166892396e-17
7.47867134939e-17
1.00714543722e-16
6.07863566921e-17
2.65550756029e-16
4.62103914828e-17
4.08146119477e-16
3.14927710055e-17
5.30022774495e-16
1.70738292362e-17
6.32868613852e-16
3.29463305898e-18
7.18361994875e-16
-9.60617654301e-18
7.88161836053e-16
-2.1391051245e-17
8.43896304126e-16
-3.18648072633e-17
8.87092870769e-16
-4.09140127726e-17
9.19177656432e-16
-4.84847370685e-17
9.41466609357e-16
-5.45850928421e-17
9.55145530109e-16
-5.92666245771e-17
9.61285762403e-16
-6.25882501897e-17
9.60838482513e-16
-6.46096979206e-17
9.54638042256e-16
-6.54441416179e-17
9.43407844932e-16
-6.5257042036e-17
9.27768030213e-16
-6.41279056198e-17
9.08264179081e-16
-6.2222270061e-17
8.85335771439e-16
-5.96648874781e-17
8.59360789849e-16
-5.65602294455e-17
8.30641007809e-16
-5.30092011525e-17
7.99408559043e-16
-4.90977284272e-17
7.65829371297e-16
-4.48985804318e-17
7.29992333373e-16
-4.05271396925e-17
6.91899691085e-16
-3.6029841869e-17
6.51461557864e-16
-3.14407293953e-17
6.08459385415e-16
-2.68406726372e-17
5.62518586454e-16
-2.22672882797e-17
5.13086456384e-16
-1.7789312996e-17
4.59441512254e-16
-1.3491108113e-17
4.00883974399e-16
-9.52802826259e-18
3.37338842988e-16
-6.10464685559e-18
2.70360147109e-16
-3.4010530181e-18
2.03252051567e-16
-1.48954221263e-18
1.39239858449e-16
-3.68703079257e-19
7.9946231344e-17
2.57479219619e-17
-4.45630705985e-18
-3.67171331727e-15
-8.76992372692e-18
-3.41768763823e-15
-1.3136802415e-17
-3.11274886897e-15
-1.7762466756e-17
-2.77659394431e-15
-2.29312600411e-17
-2.42536729574e-15
-2.88608127595e-17
-2.07178088775e-15
-3.58444664747e-17
-1.72565321683e-15
-4.39587732692e-17
-1.39390757017e-15
-5.33659072723e-17
-1.08172318011e-15
-6.38190901094e-17
-7.92293748106e-16
-7.53843080523e-17
-5.27569846169e-16
-8.77611319379e-17
-2.88373526229e-16
-1.00692915093e-16
-7.47684598007e-17
-1.13875360384e-16
1.13892919815e-16
-1.26988531186e-16
2.78649478115e-16
-1.39734449093e-16
4.20814088842e-16
-1.51711386612e-16
5.41992694857e-16
-1.62653532605e-16
6.43830779091e-16
-1.72328954023e-16
7.28059746341e-16
-1.80533453153e-16
7.96381425548e-16
-1.87104917672e-16
8.50470172414e-16
-1.91932079692e-16
8.91908887448e-16
-1.94952487487e-16
9.2218147105e-16
-1.96153702166e-16
9.42649639291e-16
-1.95563344349e-16
9.54547419161e-16
-1.93270002903e-16
9.58980742911e-16
-1.89387898056e-16
9.56935266168e-16
-1.84036360102e-16
9.49273065652e-16
-1.77371064873e-16
9.36734052657e-16
-1.69568689249e-16
9.19958174034e-16
-1.60798850136e-16
8.99486547647e-16
-1.51234103582e-16
8.75763627571e-16
-1.41042725851e-16
8.49158308331e-16
-1.30383446431e-16
8.19968233842e-16
-1.19388242775e-16
7.88417125682e-16
-1.08206540792e-16
7.54654334695e-16
-9.69753144471e-17
7.18754506199e-16
-8.57846265251e-17
6.80714353341e-16
-7.47506054694e-17
6.40431468607e-16
-6.39776906477e-17
5.97679982685e-16
-5.35415122074e-17
5.5208752778e-16
-4.35540886074e-17
5.03105716111e-16
-3.41406234315e-17
4.50033585267e-16
-2.54680891748e-17
3.92213925216e-16
-1.7762464632e-17
3.29635953533e-16
-1.12932361707e-17
2.6389205248e-16
-6.26484538995e-18
1.98222265734e-16
-2.7380535814e-18
1.35712675595e-16
-6.76586778504e-19
7.78840035691e-17
2.50714846668e-17
-3.03855095602e-17
-3.64136822866e-15
-5.88247555861e-17
-3.38928622707e-15
-8.50929052084e-17
-3.08652221198e-15
-1.09190648574e-16
-2.75252571259e-15
-1.31315226932e-16
-2.40329265371e-15
-1.5167395864e-16
-2.05147804715e-15
-1.70577516391e-16
-1.7066958358e-15
-1.88359566772e-16
-1.37615903514e-15
-2.05277749415e-16
-1.06484506805e-15
-2.21329421083e-16
-7.76127067082e-16
-2.36786180449e-16
-5.12124143366e-16
-2.51557469702e-16
-2.73642715833e-16
-2.6553242382e-16
-6.07649584059e-17
-2.78635125664e-16
1.27016496959e-16
-2.90710272997e-16
2.90732482975e-16
-3.01523698683e-16
4.31672606546e-16
-3.10941184577e-16
5.51383832666e-16
-3.18709087989e-16
6.51612869228e-16
-3.24698976272e-16
7.34051246413e-16
-3.28770563742e-16
8.00440446154e-16
-3.30825625394e-16
8.52501410962e-16
-3.30785250898e-16
8.91848216125e-16
-3.28620551578e-16
9.20006643364e-16
-3.24365637731e-16
9.38384425497e-16
-3.18086448838e-16
9.48258297958e-16
-3.0988811524e-16
9.50771505889e-16
-2.99888829466e-16
9.46948513631e-16
-2.8828925652e-16
9.37660782123e-16
-2.75231731912e-16
9.2368933074e-16
-2.60933839399e-16
9.05672372324e-16
-2.45624384005e-16
8.84163634267e-16
-2.29491292425e-16
8.59618661896e-16
-2.12716895191e-16
8.32394567136e-16
-1.95520984084e-16
8.02778813698e-16
-1.78092835657e-16
7.70982627994e-16
-1.60594732208e-16
7.37151532581e-16
-1.4318479608e-16
7.01345359012e-16
-1.26001311904e-16
6.635494725e-16
-1.09218250893e-16
6.23649385574e-16
-9.29564557081e-17
5.81419030917e-16
-7.73486856227e-17
5.36485530441e-16
-6.25540971565e-17
4.88314449123e-16
-4.8753008368e-17
4.36234583858e-16
-3.61824819437e-17
3.79640648923e-16
-2.51376925188e-17
3.18589727313e-16
-1.59446761887e-17
2.54698993884e-16
-8.83351752641e-18
1.91110187043e-16
-3.85797030489e-18
1.30736504736e-16
-9.52435933269e-19
7.49776213473e-17
2.41190044512e-17
-5.31818033035e-17
-3.5882280038e-15
-1.02824081479e-16
-3.33968047589e-15
-1.48303577998e-16
-3.04099058026e-15
-1.89490920992e-16
-2.711378429e-15
-2.26413056001e-16
-2.36641544438e-15
-2.59283554992e-16
-2.01856512321e-15
-2.88531566421e-16
-1.6774036903e-15
-3.14555347623e-16
-1.35008481332e-15
-3.37815921555e-16
-1.04162637872e-15
-3.58553149162e-16
-7.55458137736e-16
-3.77078622603e-16
-4.9364749995e-16
-3.93573131173e-16
-2.57169597533e-16
-4.08124473478e-16
-4.61945142556e-17
-4.20801355144e-16
1.39733887337e-16
-4.31672910984e-16
3.01531123746e-16
-4.40581945756e-16
4.4058753233e-16
-4.47468583786e-16
5.58312427734e-16
-4.52263619445e-16
6.56440553704e-16
-4.54909392153e-16
7.36694705191e-16
-4.5528150031e-16
8.00837938234e-16
-4.53379041203e-16
8.50574317936e-16
-4.49125848249e-16
8.8758613309e-16
-4.42541458677e-16
9.1341431453e-16
-4.33683732444e-16
9.29514684085e-16
-4.22626052039e-16
9.37191153582e-16
-4.09473427149e-16
9.37631176512e-16
-3.94420932281e-16
9.31868588345e-16
-3.77578553969e-16
9.20840898105e-16
-3.59202470884e-16
9.05317601238e-16
-3.39481556357e-16
8.85972490816e-16
-3.18672092598e-16
8.63364166492e-16
-2.97035567796e-16
8.37943208956e-16
-2.74741120635e-16
8.10082712224e-16
-2.52026215615e-16
7.80058646218e-16
-2.29084679466e-16
7.48073007262e-16
-2.06180898277e-16
7.14249390616e-16
-1.83475665089e-16
6.78645816325e-16
-1.61151142673e-16
6.41235172314e-16
-1.39392648353e-16
6.01896495455e-16
-1.18373360109e-16
5.60401049429e-16
-9.82587520127e-17
5.16383553615e-16
-7.92680273317e-17
4.69325692749e-16
-6.16262494168e-17
4.18594266816e-16
-4.5634565481e-17
3.63645161197e-16
-3.16607508551e-17
3.0460613934e-16
-2.00674356762e-17
2.43107065988e-16
-1.11160827601e-17
1.82159996614e-16
-4.85713313151e-18
1.24476813669e-16
-1.20038935638e-18
7.13203869561e-17
2.29193750119e-17
-7.30080508167e-17
-3.51516764909e-15
-1.41079871419e-16
-3.27165971658e-15
-2.03297579567e-16
-2.97881487993e-15
-2.59297169976e-16
-2.65541213405e-15
-3.09022645051e-16
-2.31673847709e-15
-3.52729080802e-16
-1.97490367808e-15
-3.90825110329e-16
-1.63926197693e-15
-4.2383554234e-16
-1.3170279281e-15
-4.52362688889e-16
-1.01312462655e-15
-4.76815621798e-16
-7.31029487416e-16
-4.97671637758e-16
-4.72767837993e-16