/*--------------------------------*- C++ -*----------------------------------*\
| =========                 |                                                 |
| \\      /  F ield         | OpenFOAM: The Open Source CFD Toolbox           |
|  \\    /   O peration     | Version:  3.0.1                                 |
|   \\  /    A nd           | Web:      www.OpenFOAM.org                      |
|    \\/     M anipulation  |                                                 |
\*---------------------------------------------------------------------------*/
FoamFile
{
    version     2.0;
    format      ascii;
    class       volSymmTensorField;
    location    "50000";
    object      R;
}
// * * * * * * * * * * * * * * * * * * * * * * * * * * * * * * * * * * * * * //

dimensions      [0 2 -2 0 0 0 0];

internalField   nonuniform List<symmTensor> 
2500
(
(0.000622520380647 2.39568072188e-05 2.39561825797e-05 0.000622520380513 2.6329505829e-18 0.000622520380781)
(0.000635102031655 7.06929718661e-05 2.40959069454e-05 0.000635102031523 2.49732954646e-17 0.000635102031786)
(0.000657957876464 0.000115037610324 2.43360862184e-05 0.000657957876338 5.66252381691e-17 0.00065795787659)
(0.000688721511173 0.000156970848159 2.4629740572e-05 0.000688721511054 8.89279490392e-17 0.000688721511293)
(0.00072524148522 0.0001965361328 2.493018177e-05 0.00072524148511 1.42799538909e-16 0.00072524148533)
(0.00076572350114 0.00023384323182 2.51955436974e-05 0.00076572350104 1.66408470645e-16 0.00076572350124)
(0.000808765183253 0.000269056718389 2.53907848992e-05 0.000808765183165 1.90835902164e-16 0.000808765183341)
(0.0008533266839 0.00030237764909 2.54882863429e-05 0.000853326683825 1.96907090904e-16 0.000853326683975)
(0.0008986729405 0.000334024934721 2.54678106062e-05 0.000898672940438 1.62452724106e-16 0.000898672940562)
(0.000944309442493 0.000364219427325 2.53161920135e-05 0.000944309442445 1.47488129256e-16 0.000944309442542)
(0.000989922273547 0.000393171488397 2.50268844899e-05 0.000989922273511 9.9759825953e-17 0.000989922273582)
(0.00103532656827 0.000421071886936 2.45993847208e-05 0.00103532656824 3.24632457905e-17 0.00103532656829)
(0.00108042420453 0.000448085629929 2.40385235118e-05 0.00108042420452 -5.72288099643e-17 0.00108042420454)
(0.00112517013597 0.000474348306105 2.33536308291e-05 0.00112517013597 -1.60846245247e-16 0.00112517013596)
(0.00116954629233 0.000499964541362 2.25576004085e-05 0.00116954629235 -2.65631787716e-16 0.00116954629232)
(0.00121354190214 0.00052500816934 2.16658998401e-05 0.00121354190216 -3.78896664776e-16 0.00121354190212)
(0.00125713916062 0.000549523720456 2.06955816212e-05 0.00125713916065 -4.85397725074e-16 0.00125713916059)
(0.00130030326489 0.000573528836951 1.96643520664e-05 0.00130030326493 -5.87406982399e-16 0.00130030326485)
(0.00134297592712 0.000597017237091 1.85897465172e-05 0.00134297592716 -6.8028821773e-16 0.00134297592708)
(0.00138507154827 0.000619961881807 1.74884460795e-05 0.00138507154832 -7.60817732895e-16 0.00138507154822)
(0.00142647529419 0.000642318039419 1.63757554934e-05 0.00142647529424 -8.29330366012e-16 0.00142647529413)
(0.00146704236698 0.000664025993043 1.5265245781e-05 0.00146704236704 -8.81497536026e-16 0.00146704236692)
(0.00150659781196 0.000685013183501 1.41685516209e-05 0.00150659781202 -9.18877193118e-16 0.0015065978119)
(0.00154493624033 0.00070519561997 1.3095304699e-05 0.0015449362404 -9.31677367662e-16 0.00154493624027)
(0.00158182087641 0.000724478417485 1.20531776436e-05 0.00158182087647 -9.23587412287e-16 0.00158182087634)
(0.00161698134445 0.000742755327248 1.10480113174e-05 0.00161698134451 -9.00888429298e-16 0.00161698134438)
(0.00165010958109 0.000759907104226 1.00839992797e-05 0.00165010958115 -8.5724506932e-16 0.00165010958103)
(0.00168085317725 0.000775798505395 9.16390594356e-06 0.00168085317731 -7.94240802078e-16 0.00168085317719)
(0.00170880529407 0.00079027361635 8.28929876363e-06 0.00170880529412 -7.14693736472e-16 0.00170880529401)
(0.00173349002837 0.000803149048076 7.46077984688e-06 0.00173349002843 -6.22448691827e-16 0.00173349002832)
(0.00175434167619 0.000814204304682 6.67820603368e-06 0.00175434167624 -5.11273353673e-16 0.00175434167613)
(0.00177067568867 0.000823168248705 5.94089107054e-06 0.00177067568872 -3.86386021713e-16 0.00177067568862)
(0.00178164813239 0.000829700011665 5.24778639805e-06 0.00178164813243 -2.51514158119e-16 0.00178164813234)
(0.00178619901476 0.000833361788075 4.5976401765e-06 0.0017861990148 -1.09787342809e-16 0.00178619901472)
(0.00178297274539 0.000833579511051 3.98913627806e-06 0.00178297274543 3.61002900565e-17 0.00178297274536)
(0.00177020613825 0.000829585122029 3.42101714162e-06 0.00177020613828 1.83204704502e-16 0.00177020613821)
(0.00174557088806 0.000820330554362 2.89219655175e-06 0.00174557088809 3.26711806199e-16 0.00174557088803)
(0.00170595472837 0.00080435818984 2.40187157854e-06 0.0017059547284 4.61455789823e-16 0.00170595472835)
(0.00164716877537 0.000779605772739 1.94964869457e-06 0.00164716877539 5.81356776857e-16 0.00164716877535)
(0.00156359526859 0.000743120584478 1.5357103483e-06 0.0015635952686 6.78390390445e-16 0.00156359526857)
(0.00144789288348 0.000690683484206 1.16107304121e-06 0.00144789288349 7.41427367516e-16 0.00144789288347)
(0.00129120355338 0.000616504386274 8.2803787997e-07 0.00129120355339 7.55850582063e-16 0.00129120355337)
(0.0010851938651 0.000513827745347 5.41009007137e-07 0.00108519386511 7.03537826836e-16 0.00108519386509)
(0.000829015099733 0.000379352356676 3.07752474887e-07 0.000829015099736 5.69563342728e-16 0.00082901509973)
(0.000544260552324 0.00022627967461 1.39632477114e-07 0.000544260552325 3.66875533133e-16 0.000544260552323)
(0.000286004458366 9.55558237038e-05 4.42523516419e-08 0.000286004458366 1.65216122062e-16 0.000286004458366)
(0.000112043214556 2.46459688069e-05 8.32190676525e-09 0.000112043214556 4.49964670024e-17 0.000112043214556)
(2.97347170797e-05 3.26789042096e-06 7.52460632324e-10 2.97347170797e-05 6.25264441096e-18 2.97347170797e-05)
(5.07990898151e-06 1.89541714596e-07 2.52866376828e-11 5.07990898151e-06 3.77856610728e-19 5.07990898151e-06)
(8.2154122898e-06 5.29198510986e-08 2.29548085957e-12 8.2154122898e-06 1.09427746844e-19 8.2154122898e-06)
(0.000635101316792 2.40964737064e-05 7.06911465816e-05 0.000635101316661 -4.57900359792e-18 0.000635101316923)
(0.000647677927533 7.11047945255e-05 7.11031351712e-05 0.000647677927405 2.75928681439e-17 0.000647677927662)
(0.00067052442638 0.000115706617745 7.18126943397e-05 0.000670524426256 9.69328666032e-17 0.000670524426504)
(0.000701272217267 0.0001578793638 7.26830825243e-05 0.00070127221715 1.65539968574e-16 0.000701272217384)
(0.00073776279002 0.000197661518534 7.35781165061e-05 0.000737762789912 2.82619466683e-16 0.000737762790128)
(0.000778190141427 0.000235156220177 7.43752080844e-05 0.000778190141329 3.56178327401e-16 0.000778190141524)
(0.00082113724512 0.000270520959705 7.49712093101e-05 0.000821137245034 4.1131939483e-16 0.000821137245206)
(0.000865548813067 0.000303950479371 7.52842397522e-05 0.000865548812993 4.42138505435e-16 0.00086554881314)
(0.000910675520993 0.000335659056323 7.52536737717e-05 0.000910675520933 3.93854452871e-16 0.000910675521054)
(0.000956011306867 0.000365865131847 7.48393527452e-05 0.000956011306819 3.04525687514e-16 0.000956011306914)
(0.00100123446189 0.000394779088676 7.40203854635e-05 0.00100123446186 1.42334206775e-16 0.00100123446193)
(0.0010461566804 0.000422594082038 7.27935868819e-05 0.00104615668038 -5.94248635419e-17 0.00104615668042)
(0.00109068093473 0.000449479589926 7.11715275297e-05 0.00109068093472 -3.24633817205e-16 0.00109068093474)
(0.00113476763105 0.000475577324293 6.91801985262e-05 0.00113476763106 -6.10871884441e-16 0.00113476763105)
(0.00117840803243 0.000500999163402 6.68563595078e-05 0.00117840803244 -9.06488126031e-16 0.00117840803241)
(0.00122160387181 0.00052582677018 6.42446950273e-05 0.00122160387183 -1.22018274572e-15 0.00122160387178)
(0.00126435215556 0.000550112554957 6.13949382818e-05 0.00126435215559 -1.52127210001e-15 0.00126435215553)
(0.00130663426056 0.00057388163421 5.83591287981e-05 0.0013066342606 -1.81249207808e-15 0.00130663426052)
(0.00134840851452 0.000597134437168 5.51891508832e-05 0.00134840851456 -2.07453310025e-15 0.00134840851448)
(0.00138960551175 0.000619849628819 5.19346646582e-05 0.0013896055118 -2.30516672941e-15 0.0013896055117)
(0.00143012545998 0.000641987045026 4.86414958402e-05 0.00143012546003 -2.49797179657e-15 0.00143012545993)
(0.00146983688718 0.000663490371195 4.53505049862e-05 0.00146983688724 -2.63906170297e-15 0.00146983688712)
(0.00150857606392 0.000684289339416 4.20969159063e-05 0.00150857606398 -2.73560334625e-15 0.00150857606386)
(0.00154614651981 0.000704301253748 3.89100529038e-05 0.00154614651987 -2.77985191096e-15 0.00154614651975)
(0.00158231804602 0.000723431678305 3.58134171885e-05 0.00158231804608 -2.75946797505e-15 0.00158231804596)
(0.00161682457235 0.00074157413473 3.28250235787e-05 0.00161682457241 -2.68850720596e-15 0.00161682457229)
(0.00164936027319 0.000758608637405 2.99579199634e-05 0.00164936027325 -2.5557014881e-15 0.00164936027313)
(0.00167957317322 0.000774398846745 2.72208187032e-05 0.00167957317328 -2.36511698463e-15 0.00167957317316)
(0.00170705536733 0.000788787532175 2.46187801655e-05 0.00170705536739 -2.13108599236e-15 0.00170705536728)
(0.00173132870424 0.000801589882491 2.21539018488e-05 0.00173132870429 -1.8475289445e-15 0.00173132870419)
(0.00175182436298 0.000812583963837 1.98259791708e-05 0.00175182436303 -1.5214113022e-15 0.00175182436293)
(0.00176785410365 0.000821497254007 1.76331160843e-05 0.00176785410369 -1.15629145288e-15 0.0017678541036)
(0.00177856999847 0.000827987603783 1.55722742852e-05 0.00177856999851 -7.58433848109e-16 0.00177856999842)
(0.00178290800609 0.00083161606871 1.36397578961e-05 0.00178290800613 -3.40060541518e-16 0.00178290800605)
(0.0017795086707 0.000831807615473 1.18316382919e-05 0.00177950867074 9.19281765425e-17 0.00177950867066)
(0.00176660537715 0.000827793425517 1.01441299131e-05 0.00176660537718 5.26128843971e-16 0.00176660537711)
(0.00174186714595 0.000818524932609 8.57393456398e-06 0.00174186714598 9.49395094824e-16 0.00174186714593)
(0.00170218027785 0.000802544391148 7.11858204111e-06 0.00170218027788 1.34673579637e-15 0.00170218027783)
(0.00164335656006 0.000777790046373 5.7768109774e-06 0.00164335656008 1.70056359669e-15 0.00164335656004)
(0.00155978267797 0.000741310933403 4.54906877518e-06 0.00155978267798 1.9864644925e-15 0.00155978267795)
(0.0014441288818 0.000688892507345 3.43828185286e-06 0.00144412888181 2.17172460768e-15 0.00144412888179)
(0.00128756237794 0.000614756248361 2.45119627502e-06 0.00128756237795 2.2137997828e-15 0.00128756237793)
(0.0010817997049 0.00051217515624 1.60080738713e-06 0.00108179970491 2.0592282345e-15 0.00108179970489)
(0.000826074519267 0.000377909497056 9.10083587081e-07 0.00082607451927 1.66543982301e-15 0.000826074519264)
(0.000542053099705 0.000225234793294 4.12608927037e-07 0.000542053099707 1.07146333513e-15 0.000542053099704)
(0.000284710145755 9.50295194793e-05 1.3065812666e-07 0.000284710145756 4.81841482292e-16 0.000284710145755)
(0.000111505307693 2.44934682699e-05 2.45559480272e-08 0.000111505307693 1.31070494645e-16 0.000111505307693)
(2.95896801592e-05 3.24664607461e-06 2.21971365097e-09 2.95896801592e-05 1.81973596342e-17 2.95896801592e-05)
(5.05672676351e-06 1.88356399307e-07 7.46128810553e-11 5.05672676351e-06 1.09927762924e-18 5.05672676351e-06)
(8.18733370653e-06 5.26495958737e-08 6.78097905835e-12 8.18733370653e-06 3.18487256361e-19 8.18733370653e-06)
(0.000657955996533 2.43365537965e-05 0.000115034721225 0.000657955996406 -4.92917856726e-17 0.000657955996659)
(0.0006705232577 7.18140689817e-05 0.00011570398397 0.000670523257576 -6.53031498732e-17 0.000670523257824)
(0.000693353313533 0.000116862849538 0.000116860654826 0.000693353313414 1.49615533733e-17 0.000693353313652)
(0.0007240750255 0.000159456717621 0.000118287884453 0.000724075025388 1.1184925589e-16 0.000724075025612)
(0.000760518672973 0.000199625720054 0.000119768946787 0.000760518672869 2.46720225487e-16 0.000760518673077)
(0.000800858421133 0.000237460909093 0.000121107439813 0.000800858421039 3.68954320926e-16 0.000800858421227)
(0.000843651594087 0.000273106347851 0.000122136550328 0.000843651594004 4.35736780452e-16 0.000843651594169)
(0.00088781518146 0.000306744328023 0.000122722159386 0.000887815181389 4.64112120094e-16 0.000887815181531)
(0.00093257358344 0.000338579426587 0.000122763105041 0.000932573583382 4.19815907689e-16 0.000932573583498)
(0.00097739872366 0.000368824241894 0.000122190249958 0.000977398723615 2.49274146446e-16 0.000977398723705)
(0.00102195314228 0.000397687671969 0.000120964918703 0.00102195314225 -6.15064714693e-18 0.00102195314231)
(0.00106604026706 0.000425365742726 0.000119076774079 0.00106604026704 -3.12356110282e-16 0.00106604026708)
(0.00110956279585 0.000452034754248 0.000116541067891 0.00110956279584 -7.0723944473e-16 0.00110956279586)
(0.00115248872405 0.000477846491209 0.000113395243262 0.00115248872406 -1.13671929323e-15 0.00115248872405)
(0.00119482409283 0.000502925263615 0.000109694965821 0.00119482409284 -1.59078453194e-15 0.00119482409281)
(0.00123659148715 0.000527366547745 0.000105509757489 0.00123659148717 -2.06588663394e-15 0.00123659148713)
(0.00127781340759 0.000551236985361 0.00010091847308 0.00127781340762 -2.53115817526e-15 0.00127781340756)
(0.00131849975409 0.000574575475896 9.60048823344e-05 0.00131849975412 -2.97689245378e-15 0.00131849975405)
(0.00135863874791 0.000597395075052 9.08536051774e-05 0.00135863874796 -3.38513299208e-15 0.00135863874787)
(0.00139819067041 0.000619685403655 8.55466014267e-05 0.00139819067046 -3.74250675511e-15 0.00139819067037)
(0.00143708381988 0.00064141527211 8.01603486841e-05 0.00143708381993 -4.03616469259e-15 0.00143708381983)
(0.0014752120917 0.000662535240395 7.47637715391e-05 0.00147521209175 -4.26069578403e-15 0.00147521209165)
(0.00151243358121 0.000682979858188 6.94169174129e-05 0.00151243358127 -4.40170256508e-15 0.00151243358116)
(0.0015485695989 0.000702669357767 6.41703175043e-05 0.00154856959896 -4.46500059524e-15 0.00154856959884)
(0.00158340347282 0.000721510593033 5.90649350668e-05 0.00158340347288 -4.43874011019e-15 0.00158340347276)
(0.00161667848849 0.000739397031558 5.41325806677e-05 0.00161667848854 -4.317650134e-15 0.00161667848843)
(0.00164809426853 0.000756207596282 4.93966688294e-05 0.00164809426858 -4.10914447959e-15 0.00164809426847)
(0.00167730080561 0.000771804111939 4.48731974148e-05 0.00167730080566 -3.81415297388e-15 0.00167730080555)
(0.00170388920681 0.000786027030936 4.0571846621e-05 0.00170388920686 -3.4322907213e-15 0.00170388920675)
(0.00172737794934 0.000798688967583 3.64971128809e-05 0.00172737794939 -2.96965706126e-15 0.00172737794929)
(0.00174719303649 0.000809565337196 3.26494155751e-05 0.00174719303654 -2.4423144912e-15 0.00174719303644)
(0.00176263980722 0.000818381031744 2.90261333245e-05 0.00176263980727 -1.85670054979e-15 0.00176263980717)
(0.00177286319058 0.00082479148723 2.5622545661e-05 0.00177286319062 -1.22275348217e-15 0.00177286319054)
(0.00177679176738 0.000828355594559 2.2432670884e-05 0.00177679176742 -5.51882570836e-16 0.00177679176734)
(0.00177305893946 0.000828496471512 1.94500041734e-05 0.00177305893949 1.40236496052e-16 0.00177305893943)
(0.00175989168302 0.00082444383434 1.66681719145e-05 0.00175989168305 8.36110018638e-16 0.00175989168299)
(0.00173495396499 0.000815148141868 1.40815300645e-05 0.00173495396501 1.51469789665e-15 0.00173495396496)
(0.00169512932208 0.000799151376518 1.16857514872e-05 0.0016951293221 2.15338383811e-15 0.00169512932206)
(0.00163623070635 0.000774392699014 9.47847498122e-06 0.00163623070637 2.72205738877e-15 0.00163623070634)
(0.00155265305309 0.000737924425678 7.46014610998e-06 0.0015526530531 3.18061358031e-15 0.00155265305307)
(0.00143708826183 0.000685540654644 5.63529946583e-06 0.00143708826184 3.47782168238e-15 0.00143708826182)
(0.00128075092318 0.000611484642046 4.01477655091e-06 0.00128075092319 3.54433760985e-15 0.00128075092317)
(0.00107545123019 0.000509083093433 2.61972744032e-06 0.0010754512302 3.2950610711e-15 0.00107545123019)
(0.000820576927547 0.000375211601529 1.48770165313e-06 0.000820576927549 2.66220637903e-15 0.000820576927544)
(0.00053792950285 0.000223283492682 6.73524922146e-07 0.000537929502851 1.71012034399e-15 0.000537929502849)
(0.000282294629811 9.40482558111e-05 2.12954337814e-07 0.000282294629811 7.67755585082e-16 0.00028229462981)
(0.000110502077425 2.42095264069e-05 3.99765235009e-08 0.000110502077425 2.08574905977e-16 0.000110502077425)
(2.93192328723e-05 3.2071179424e-06 3.61175501561e-09 2.93192328723e-05 2.8940229665e-17 2.93192328723e-05)
(5.01348290065e-06 1.86150403235e-07 1.21462178928e-10 5.01348290065e-06 1.74901991486e-18 5.01348290065e-06)
(8.1348472598e-06 5.21456380167e-08 1.10624110633e-11 8.1348472598e-06 5.07812794562e-19 8.1348472598e-06)
(0.000688718309707 2.46300861238e-05 0.000156967086483 0.000688718309587 -9.91193074107e-17 0.000688718309826)
(0.00070126971594 7.2684106323e-05 0.000157875923936 0.000701269715823 -1.683485232e-16 0.000701269716057)
(0.00072407368144 0.00011828953666 0.000159453832677 0.000724073681328 -1.05368738916e-16 0.000724073681552)
(0.000754759352493 0.000161418089839 0.000161415892915 0.000754759352387 -1.30781794417e-18 0.000754759352599)
(0.000791145914473 0.000202089770704 0.000163476089862 0.000791145914375 1.49162478331e-16 0.000791145914571)
(0.000831384357013 0.000240379465566 0.000165372941958 0.000831384356925 2.89206702262e-16 0.000831384357102)
(0.00087399994524 0.000276412212571 0.000166881584701 0.000873999945162 3.80743138058e-16 0.000873999945318)
(0.00091787344362 0.000310351723474 0.00016781815795 0.000917873443554 4.0351367812e-16 0.000917873443686)
(0.000962193498933 0.000342387039945 0.00016804061996 0.000962193498879 3.26022522013e-16 0.000962193498988)
(0.00100640060899 0.000372719991733 0.000167448069451 0.00100640060895 1.32302240559e-16 0.00100640060904)
(0.00105013309805 0.000401554388442 0.000165979296921 0.00105013309802 -1.59802833501e-16 0.00105013309808)
(0.00109317930673 0.000429087078171 0.000163610636846 0.00109317930671 -5.45113969485e-16 0.00109317930675)
(0.00113543699639 0.000455500767701 0.000160352999339 0.00113543699638 -1.02327461838e-15 0.00113543699639)
(0.00117687958109 0.000480958474163 0.000156247999222 0.00117687958109 -1.56328891959e-15 0.00117687958108)
(0.00121752835391 0.000505599500796 0.000151363226731 0.00121752835392 -2.14186727385e-15 0.0012175283539)
(0.00125742984684 0.000529536838811 0.00014578683877 0.00125742984686 -2.74303982567e-15 0.00125742984682)
(0.00129663758116 0.000552855879732 0.000139621753399 0.00129663758119 -3.34348498657e-15 0.00129663758113)
(0.00133519760041 0.00057561428844 0.00013297978328 0.00133519760044 -3.91403701463e-15 0.00133519760037)
(0.00137313727748 0.000597842846691 0.000125976050854 0.00137313727752 -4.44381362083e-15 0.00137313727744)
(0.00141045693908 0.000619547033887 0.000118723984298 0.00141045693912 -4.90594355318e-15 0.00141045693904)
(0.00144712385847 0.00064070908359 0.000111331123825 0.00144712385851 -5.29277735107e-15 0.00144712385842)
(0.00148306814389 0.000661290239759 0.000103895875813 0.00148306814394 -5.59807920464e-15 0.00148306814384)
(0.00151818000777 0.000681232930854 9.65052614024e-05 0.00151818000782 -5.77954210311e-15 0.00151818000771)
(0.00155230785117 0.000700462592463 8.92336234797e-05 0.00155230785122 -5.85621716619e-15 0.00155230785111)
(0.00158525654438 0.000718888882101 8.21421906351e-05 0.00158525654443 -5.83165270177e-15 0.00158525654433)
(0.00161678522506 0.000736406037431 7.52793555673e-05 0.00161678522511 -5.6738851812e-15 0.00161678522501)
(0.00164660386273 0.000752892125591 6.86815039001e-05 0.00164660386278 -5.39937593464e-15 0.00164660386267)
(0.00167436773415 0.000768206900498 6.23742287396e-05 0.00167436773421 -5.01395602902e-15 0.0016743677341)
(0.00169966879332 0.000782187911124 5.63737797239e-05 0.00169966879337 -4.51337850988e-15 0.00169966879327)
(0.00172202266447 0.000794644371833 5.06886173679e-05 0.00172202266451 -3.9107030816e-15 0.00172202266442)
(0.00174084958561 0.000805348083133 4.53209721525e-05 0.00174084958566 -3.21451157191e-15 0.00174084958557)
(0.00175544700853 0.000814020331258 4.02683349035e-05 0.00175544700858 -2.43920464786e-15 0.00175544700849)
(0.00176495061679 0.000820313129011 3.55248329238e-05 0.00176495061683 -1.59955722994e-15 0.00176495061675)
(0.001768279116 0.000823782259128 3.10824693637e-05 0.00176827911604 -7.10559453035e-16 0.00176827911596)
(0.00176405611553 0.000823848154115 2.69322245107e-05 0.00176405611557 2.06957116027e-16 0.0017640561155)
(0.00175049963754 0.000819738378449 2.30650357243e-05 0.00175049963757 1.13097479217e-15 0.00175049963751)
(0.00172526646214 0.000810401931982 1.94726924927e-05 0.00172526646216 2.03443266143e-15 0.00172526646212)
(0.00168523607625 0.000794380340047 1.61487065318e-05 0.00168523607627 2.88493932161e-15 0.00168523607623)
(0.00162622288282 0.000769614002446 1.30892587341e-05 0.00162622288284 3.64095740227e-15 0.0016262228828)
(0.00154263327597 0.000733159849707 1.02944033292e-05 0.00154263327598 4.25070349595e-15 0.00154263327595)
(0.00142718959086 0.000680824233431 7.7698773428e-06 0.00142718959087 4.64493582148e-15 0.00142718959085)
(0.00127117327929 0.000606881340466 5.53020092349e-06 0.00127117327929 4.73013349593e-15 0.00127117327928)
(0.00106652668141 0.000504734072975 3.60423441175e-06 0.00106652668141 4.39320411297e-15 0.0010665266814)
(0.000812854158933 0.000371420912231 2.04355170576e-06 0.000812854158936 3.54412173415e-15 0.000812854158931)
(0.00053214435113 0.000220547239449 9.23300906068e-07 0.000532144351131 2.27179922574e-15 0.000532144351129)
(0.000278910899146 9.26757914056e-05 2.91295732316e-07 0.000278910899146 1.01759150091e-15 0.000278910899146)
(0.00010909812914 2.38132339001e-05 5.45938883922e-08 0.00010909812914 2.75974070836e-16 0.00010909812914)
(2.89408837095e-05 3.15200805994e-06 4.92875825949e-09 2.89408837095e-05 3.82639795905e-17 2.89408837095e-05)
(4.95294961098e-06 1.83073613903e-07 1.65864154499e-10 4.95294961098e-06 2.31428926044e-18 4.95294961098e-06)
(8.06113683633e-06 5.14405917939e-08 1.51521512799e-11 8.06113683633e-06 6.74052837273e-19 8.06113683633e-06)
(0.000725237038147 2.49303984187e-05 0.000196531721365 0.000725237038036 -1.52578273481e-16 0.000725237038257)
(0.000737759022287 7.35787689447e-05 0.000197657471943 0.000737759022179 -2.92524619587e-16 0.000737759022395)
(0.000760516035013 0.00011977002288 0.000199622304422 0.000760516034909 -2.43796170024e-16 0.000760516035117)
(0.000791144601687 0.000163477553151 0.000202087140572 0.000791144601589 -1.41474838529e-16 0.000791144601785)
(0.000827458105867 0.000204711697979 0.000204709909301 0.000827458105776 6.24157644235e-18 0.000827458105957)
(0.000867586488753 0.000243528683347 0.000207174633996 0.000867586488672 1.46066673904e-16 0.000867586488835)
(0.0009100216638 0.000280029937608 0.000209205572949 0.000910021663728 2.53066844657e-16 0.000910021663872)
(0.000953603890153 0.000314354751013 0.000210572802677 0.000953603890092 2.90575937504e-16 0.000953603890214)
(0.000997479538033 0.00034667029631 0.000211093810864 0.000997479537983 2.02510173711e-16 0.000997479538083)
(0.00104104974125 0.000377161448264 0.000210633449184 0.00104104974121 3.77597944212e-18 0.00104104974129)
(0.00108392005934 0.000406021396406 0.00020910306899 0.00108392005931 -3.19304876436e-16 0.00108392005937)
(0.00112585532671 0.000433443317822 0.0002064588989 0.0011258553267 -7.45697362317e-16 0.00112585532673)
(0.00116674074037 0.000459613136951 0.00020269947424 0.00116674074036 -1.2559763535e-15 0.00116674074037)
(0.00120654886699 0.000484703368688 0.000197861949522 0.001206548867 -1.85185115292e-15 0.00120654886699)
(0.0012453118111 0.000508868065253 0.00019201726462 0.00124531181111 -2.52959862773e-15 0.00124531181109)
(0.00128309777292 0.000532238902565 0.000185264298297 0.00128309777294 -3.2232715124e-15 0.0012830977729)
(0.00131999136613 0.000554922428303 0.000177723284575 0.00131999136615 -3.91095998481e-15 0.0013199913661)
(0.00135607722651 0.00057699845965 0.000169528862673 0.00135607722654 -4.58357292123e-15 0.00135607722647)
(0.00139142656549 0.000598519559182 0.000160823172386 0.00139142656553 -5.20198002063e-15 0.00139142656546)
(0.00142608638769 0.000619511455227 0.000151749391491 0.00142608638773 -5.75084119332e-15 0.00142608638765)
(0.00146007109944 0.000639974211625 0.000142446053488 0.00146007109948 -6.20953374534e-15 0.0014600710994)
(0.0014933561974 0.000659883898042 0.000133042392016 0.00149335619745 -6.56646456205e-15 0.00149335619735)
(0.00152587365547 0.000679194480672 0.000123654849744 0.00152587365552 -6.80165652037e-15 0.00152587365542)
(0.00155750853903 0.000697839630265 0.00011438478424 0.00155750853908 -6.90849372543e-15 0.00155750853898)
(0.00158809627721 0.000715734139461 0.000105317306292 0.00158809627726 -6.87776806341e-15 0.00158809627716)
(0.00161741992132 0.000732774641913 9.65211157438e-05 0.00161741992137 -6.70967003308e-15 0.00161741992127)
(0.0016452066059 0.000748839317681 8.80491530276e-05 0.00164520660595 -6.39986694604e-15 0.00164520660585)
(0.00167112229605 0.000763786245351 7.99398649154e-05 0.00167112229609 -5.94471121335e-15 0.001671122296)
(0.00169476372559 0.000777449998784 7.22188848939e-05 0.00169476372563 -5.35581370654e-15 0.00169476372554)
(0.00171564616948 0.000789635967268 6.49009486746e-05 0.00171564616952 -4.6463048184e-15 0.00171564616944)
(0.00173318529639 0.000800111666104 5.79918940599e-05 0.00173318529643 -3.81907786582e-15 0.00173318529635)
(0.00174667073857 0.000808593959461 5.14906305056e-05 0.00174667073861 -2.88861854834e-15 0.00174667073853)
(0.00175522809118 0.000814730558545 4.53909987392e-05 0.00175522809122 -1.87902567601e-15 0.00175522809114)
(0.00175776467171 0.00081807326689 3.96834746091e-05 0.00175776467174 -8.08857269564e-16 0.00175776467167)
(0.00175289237047 0.000818039025697 3.43567016274e-05 0.0017528923705 2.98272292148e-16 0.00175289237044)
(0.00173881819333 0.000813852558383 2.93988642505e-05 0.00173881819335 1.41412058525e-15 0.0017388181933)
(0.00171318986183 0.000804460893553 2.47989417321e-05 0.00171318986186 2.50703896995e-15 0.00171318986181)
(0.00167288157213 0.000788404860317 2.05479166469e-05 0.00167288157215 3.53589951015e-15 0.00167288157211)
(0.00161370926587 0.000763626328868 1.66400663431e-05 0.00161370926588 4.45095897168e-15 0.00161370926585)
(0.00153009347015 0.000727188008509 1.30745692972e-05 0.00153009347016 5.18855098665e-15 0.00153009347013)
(0.0014147946343 0.000674911764713 9.85787294885e-06 0.00141479463431 5.66290137201e-15 0.00141479463429)
(0.00125917833371 0.000601111043449 7.00769935676e-06 0.00125917833371 5.76030267333e-15 0.0012591783337)
(0.00105535315785 0.000499285310935 4.56016179304e-06 0.00105535315786 5.34209295388e-15 0.00105535315785)
(0.000803194634793 0.000366678238982 2.58034664569e-06 0.000803194634796 4.30067453586e-15 0.000803194634791)
(0.000524920783837 0.000217132821728 1.16283830887e-06 0.000524920783838 2.74926680204e-15 0.000524920783836)
(0.000274694220023 9.09689889069e-05 3.65864932719e-07 0.000274694220024 1.22787758463e-15 0.000274694220023)
(0.000107350887479 2.33217915744e-05 6.84288959132e-08 0.000107350887479 3.32278055568e-16 0.000107350887479)
(2.84702200483e-05 3.08376211656e-06 6.17208969126e-09 2.84702200483e-05 4.60272028375e-17 2.84702200483e-05)
(4.87758631655e-06 1.79261423318e-07 2.07882491636e-10 4.87758631655e-06 2.78643113839e-18 4.87758631655e-06)
(7.9689702808e-06 5.05634649698e-08 1.90630628112e-11 7.9689702808e-06 8.14732135114e-19 7.9689702808e-06)
(0.00076571802544 2.51956362428e-05 0.000233838396934 0.00076571802534 -1.76354146859e-16 0.00076571802554)
(0.000778185314353 7.43755020587e-05 0.000235151771696 0.000778185314256 -3.67301408326e-16 0.000778185314451)
(0.00080085467928 0.000121107957763 0.000237457131284 0.000800854679186 -3.63424320618e-16 0.000800854679374)
(0.000831381900247 0.000165373691354 0.000240376526274 0.000831381900158 -2.79624166459e-16 0.000831381900335)
(0.0008675853219 0.000207175599679 0.000243526646938 0.000867585321818 -1.40050110851e-16 0.000867585321982)
(0.000907581577027 0.000246550468627 0.000246549320182 0.000907581576953 1.30357429082e-18 0.0009075815771)
(0.000949833167893 0.000283572869506 0.000249126831015 0.000949833167829 1.07560659924e-16 0.000949833167958)
(0.000993140002733 0.000318352590823 0.000250988509295 0.000993140002679 1.48401823753e-16 0.000993140002788)
(0.00103660299499 0.000351028671655 0.000251913239761 0.00103660299494 7.93557312634e-17 0.00103660299503)
(0.00107957804739 0.000381762193831 0.000251730338102 0.00107957804735 -1.13535698864e-16 0.00107957804742)
(0.00112163011759 0.0004107288641 0.000250319659843 0.00112163011757 -4.33100806319e-16 0.00112163011762)
(0.00116249145982 0.000438111781404 0.000247610980066 0.00116249145981 -8.72183433097e-16 0.00116249145983)
(0.00120202512485 0.000464094544105 0.000243582383401 0.00120202512484 -1.41966166832e-15 0.00120202512485)
(0.00124019345331 0.000488854808372 0.000238257396111 0.00124019345331 -2.05610976521e-15 0.0012401934533)
(0.00127703085853 0.000512558431585 0.000231700728222 0.00127703085854 -2.75098778766e-15 0.00127703085852)
(0.00131262018801 0.000535354356512 0.000224012667577 0.00131262018803 -3.4847374753e-15 0.001312620188)
(0.00134707211039 0.000557370390008 0.000215322342299 0.00134707211042 -4.22522731736e-15 0.00134707211037)
(0.00138050716148 0.000578710000963 0.000205780203838 0.00138050716151 -4.95589061653e-15 0.00138050716145)
(0.00141304023468 0.000599450204467 0.000195550168429 0.00141304023471 -5.63891773922e-15 0.00141304023465)
(0.00144476739274 0.000619640520572 0.000184801886412 0.00144476739278 -6.25510893996e-15 0.0014447673927)