/*--------------------------------*- C++ -*----------------------------------*\
| =========                 |                                                 |
| \\      /  F ield         | OpenFOAM: The Open Source CFD Toolbox           |
|  \\    /   O peration     | Version:  3.0.1                                 |
|   \\  /    A nd           | Web:      www.OpenFOAM.org                      |
|    \\/     M anipulation  |                                                 |
\*---------------------------------------------------------------------------*/
FoamFile
{
    version     2.0;
    format      ascii;
    class       volVectorField;
    location    "50000";
    object      U;
}
// * * * * * * * * * * * * * * * * * * * * * * * * * * * * * * * * * * * * * //

dimensions      [0 1 -1 0 0 0 0];

internalField   nonuniform List<vector> 
2500
(
(0.634499004634 5.58936535304e-13 -5.58785142716e-13)
(0.633722854241 1.63772879357e-12 -5.45579655037e-13)
(0.632287008822 2.63071289115e-12 -5.21754387707e-13)
(0.630299690767 3.52719803641e-12 -4.89226813675e-13)
(0.627855356504 4.32173941605e-12 -4.49982480062e-13)
(0.625032346295 5.0113819149e-12 -4.05844062625e-13)
(0.621893133387 5.59804338617e-12 -3.57705070929e-13)
(0.618486017363 6.08573068781e-12 -3.07293116734e-13)
(0.614847330571 6.47866943488e-12 -2.54979205887e-13)
(0.611003624354 6.78341057767e-12 -2.01812587563e-13)
(0.606973602538 7.00628644289e-12 -1.48581759228e-13)
(0.602769737654 7.15453523775e-12 -9.55020678333e-14)
(0.598399581242 7.23436992195e-12 -4.32490850362e-14)
(0.593866805814 7.25337641017e-12 8.14793359499e-15)
(0.589172019689 7.21819473414e-12 5.81461605088e-14)
(0.584313391161 7.1348129879e-12 1.06721996705e-13)
(0.579287111722 7.00957240994e-12 1.53569453975e-13)
(0.57408772174 6.84789757969e-12 1.98629706202e-13)
(0.568708316765 6.65518334172e-12 2.4173472735e-13)
(0.563140648396 6.43617544768e-12 2.82865341974e-13)
(0.557375130061 6.19534730021e-12 3.21903843432e-13)
(0.55140075473 5.93670849631e-12 3.58885757841e-13)
(0.545204928165 5.66397251715e-12 3.93707614102e-13)
(0.538773217491 5.38044905205e-12 4.26442450915e-13)
(0.53208901036 5.08912654696e-12 4.56931249471e-13)
(0.525133074389 4.79268223587e-12 4.85273717317e-13)
(0.517882999496 4.49348034845e-12 5.11385120314e-13)
(0.510312496569 4.1937012069e-12 5.35289126682e-13)
(0.502390513615 3.89524774962e-12 5.56904958912e-13)
(0.494080113723 3.59979676559e-12 5.76252935474e-13)
(0.485337035657 3.30887550367e-12 5.9326417789e-13)
(0.476107824238 3.02379990822e-12 6.07845559193e-13)
(0.466327368768 2.74576062145e-12 6.1991970601e-13)
(0.455915615536 2.47581293088e-12 6.29359988531e-13)
(0.444773112866 2.21493780385e-12 6.36029325849e-13)
(0.432774886256 1.96399900195e-12 6.39712978684e-13)
(0.419761902808 1.7237806677e-12 6.40149254392e-13)
(0.405529044048 1.49505020347e-12 6.3697567025e-13)
(0.389808071936 1.27858033535e-12 6.29716111189e-13)
(0.372243712468 1.07514081815e-12 6.17701741409e-13)
(0.352361485605 8.85577901365e-13 6.00024410569e-13)
(0.32953027296 7.10904492176e-13 5.75424470433e-13)
(0.302940871319 5.5230716633e-13 5.4221592182e-13)
(0.27168086897 4.11265824949e-13 4.98328697545e-13)
(0.235110965577 2.89469411639e-13 4.41927071879e-13)
(0.193707109765 1.88671360582e-13 3.72995667384e-13)
(0.149571336935 1.10092649966e-13 2.94750305299e-13)
(0.105224000721 5.34085925831e-14 2.11893852791e-13)
(0.0620697986029 1.75662146588e-14 1.27576473697e-13)
(0.020478625673 9.32561604932e-16 4.30794012787e-14)
(0.633722874478 5.45645745539e-13 -1.63700792274e-12)
(0.632945341825 1.59874590681e-12 -1.59835420842e-12)
(0.631506799546 2.56819304522e-12 -1.52846450023e-12)
(0.629515543521 3.44344817699e-12 -1.43322102818e-12)
(0.627066212925 4.21876755629e-12 -1.31810921712e-12)
(0.62423746096 4.89197718055e-12 -1.1885602685e-12)
(0.621092170878 5.46430283556e-12 -1.0476275279e-12)
(0.617679099102 5.93997528111e-12 -8.99682331089e-13)
(0.614035035567 6.32336894338e-12 -7.46730117066e-13)
(0.610186954953 6.61997117452e-12 -5.91383078986e-13)
(0.606153926154 6.83684662567e-12 -4.35289783333e-13)
(0.60194871345 6.98091222116e-12 -2.79940241624e-13)
(0.597579078805 7.05837297331e-12 -1.26674981914e-13)
(0.593048821455 7.0765791727e-12 2.38286146819e-14)
(0.588358595044 7.0418878989e-12 1.70369314907e-13)
(0.583506537952 6.96033807757e-12 3.12582733886e-13)
(0.578488745754 6.83792681092e-12 4.49801806613e-13)
(0.573299608338 6.68004694866e-12 5.81708416664e-13)
(0.567932028956 6.49193678519e-12 7.07980823237e-13)
(0.562377538241 6.27820736491e-12 8.28378524413e-13)
(0.556626312706 6.04327917559e-12 9.42771251141e-13)
(0.550667104061 5.79100000905e-12 1.05103335987e-12)
(0.544487082475 5.5250679353e-12 1.15303738858e-12)
(0.538071593248 5.24847189202e-12 1.24881518894e-12)
(0.531403822078 4.96423230362e-12 1.33824115205e-12)
(0.524464358672 4.67513133946e-12 1.42125512813e-12)
(0.517230641505 4.3832914254e-12 1.49786507132e-12)
(0.509676257429 4.09085652897e-12 1.56788874594e-12)
(0.501770057603 3.79974507063e-12 1.6313087641e-12)
(0.493475034375 3.51169489903e-12 1.68801894676e-12)
(0.484746880266 3.22788548754e-12 1.73783931793e-12)
(0.47553211649 2.94971205398e-12 1.78059802293e-12)
(0.465765629561 2.67839555133e-12 1.81598135785e-12)
(0.455367382316 2.4149927174e-12 1.84365767618e-12)
(0.444237958192 2.16044625034e-12 1.86317534319e-12)
(0.432252436868 1.91555719122e-12 1.87392460447e-12)
(0.419251861493 1.68113344287e-12 1.87512626248e-12)
(0.405031218655 1.45794056157e-12 1.86572453815e-12)
(0.389322420321 1.24672120826e-12 1.84430951294e-12)
(0.371770422346 1.04821013268e-12 1.80891986923e-12)
(0.351901132443 8.6326411095e-13 1.75689708181e-12)
(0.329084156975 6.9286768434e-13 1.68455676182e-12)
(0.302511762548 5.38162596651e-13 1.58696513637e-12)
(0.271274570949 4.00616670363e-13 1.45811364054e-12)
(0.234738748445 2.81911253384e-13 1.29265861212e-12)
(0.193386146451 1.83704266144e-13 1.09064722682e-12)
(0.149317793125 1.07176046232e-13 8.61553894267e-13)
(0.105044860829 5.19856110866e-14 6.19147870382e-13)
(0.0619644517178 1.70967549527e-14 3.72633276264e-13)
(0.0204440549314 9.07941425408e-16 1.2576367624e-13)
(0.632287060489 5.21588064365e-13 -2.63016585862e-12)
(0.631506831121 1.52832414305e-12 -2.56776121166e-12)
(0.630063046473 2.45517374131e-12 -2.45510915764e-12)
(0.628064156326 3.29206296706e-12 -2.30192136321e-12)
(0.625605140653 4.03289130204e-12 -2.11691644378e-12)
(0.622765221661 4.67597966127e-12 -1.90829870759e-12)
(0.619608025858 5.22236303006e-12 -1.68211098046e-12)
(0.616183141321 5.67583304035e-12 -1.44394990851e-12)
(0.612528197697 6.04097347157e-12 -1.19830044504e-12)
(0.608670955276 6.32338850455e-12 -9.48744172183e-13)
(0.604631170862 6.52962190178e-12 -6.97808973878e-13)
(0.600422170598 6.66611972549e-12 -4.48297105028e-13)
(0.596052135948 6.73925428943e-12 -2.0206098566e-13)
(0.591525136703 6.7556901281e-12 3.94498628148e-14)
(0.586841949714 6.72167408273e-12 2.74698753792e-13)
(0.582000697789 6.64312910508e-12 5.02851398796e-13)
(0.576997336511 6.52566870806e-12 7.23016848473e-13)
(0.571826010167 6.3745696939e-12 9.34618000171e-13)
(0.566479292598 6.19467676514e-12 1.13717113548e-12)
(0.560948324434 5.99050421169e-12 1.33033812481e-12)
(0.555222854743 5.76621961167e-12 1.51385437638e-12)
(0.549291192094 5.52535483533e-12 1.68753335638e-12)
(0.543140067114 5.27160972784e-12 1.85126973429e-12)
(0.536754405318 5.00793190981e-12 2.00490016767e-12)
(0.530117005018 4.73682366608e-12 2.14846227955e-12)
(0.523208110045 4.4611519459e-12 2.28175141378e-12)
(0.516004860305 4.18275618342e-12 2.40474560752e-12)
(0.508480594286 3.90371294954e-12 2.51728334879e-12)
(0.500603965508 3.62616116117e-12 2.61926696444e-12)
(0.492337818134 3.35133644483e-12 2.71041435386e-12)
(0.483637743463 3.08071373912e-12 2.79051028073e-12)
(0.47445020533 2.81541685547e-12 2.85922578674e-12)
(0.464710073492 2.55650460386e-12 2.9161387261e-12)
(0.454337331958 2.305158804e-12 2.96067826524e-12)
(0.443232621807 2.06217788419e-12 2.99210109486e-12)
(0.431271117701 1.82840611785e-12 3.00944414075e-12)
(0.418294000289 1.6046318495e-12 3.01143006016e-12)
(0.404096449479 1.39159449526e-12 2.99637611877e-12)
(0.388410656277 1.18993031733e-12 2.96196422225e-12)
(0.370882006911 1.00037574705e-12 2.9050791575e-12)
(0.351037137731 8.23813773228e-13 2.82141849776e-12)
(0.328247019178 6.61117815575e-13 2.70506814143e-12)
(0.301706684889 5.13486137187e-13 2.54810667922e-12)
(0.270512461708 3.82252914262e-13 2.34089851396e-12)
(0.23404077011 2.68960023043e-13 2.07494378373e-12)
(0.192784468775 1.75277569668e-13 1.75042981556e-12)
(0.148842602802 1.02273079163e-13 1.38263023085e-12)
(0.104709144335 4.96191957052e-14 9.93583261214e-13)
(0.0617670292848 1.63241848553e-14 5.97981583488e-13)
(0.0203792686052 8.69661856948e-16 2.01815549108e-13)
(0.630299774811 4.8917309105e-13 -3.52719322042e-12)
(0.62951560792 1.43312404467e-12 -3.44328029883e-12)
(0.62806418961 2.30190406951e-12 -3.29200830873e-12)
(0.626054197705 3.08619509102e-12 -3.08612568476e-12)
(0.623581071494 3.78011262437e-12 -2.83776737899e-12)
(0.620724787149 4.38195975753e-12 -2.55741980602e-12)
(0.617549958915 4.8929599593e-12 -2.25371545112e-12)
(0.614107290578 5.31647971684e-12 -1.93396531146e-12)
(0.610435553207 5.65678243033e-12 -1.60412957381e-12)
(0.606563593046 5.9195939059e-12 -1.2690015564e-12)
(0.602512138675 6.11087568136e-12 -9.32499440066e-13)
(0.598295333863 6.23662589545e-12 -5.97973177616e-13)
(0.593921998392 6.30324944512e-12 -2.6796724024e-13)
(0.589396647955 6.31690229012e-12 5.54296006754e-14)
(0.584720310091 6.28348723023e-12 3.70481345284e-13)
(0.57989116939 6.20867152897e-12 6.758511004e-13)
(0.574905068567 6.09766059124e-12 9.70518663996e-13)
(0.569755885318 5.95538712748e-12 1.25367449183e-12)
(0.564435799157 5.78649110807e-12 1.52467241898e-12)
(0.558935457866 5.59506130407e-12 1.78313775811e-12)
(0.55324404968 5.38499816592e-12 2.02863612596e-12)
(0.547349284338 5.15976815031e-12 2.26106755093e-12)
(0.541237283438 4.92250341886e-12 2.48023285245e-12)
(0.534892377648 4.67607621632e-12 2.68584406297e-12)
(0.528296804733 4.42293524611e-12 2.87799055217e-12)
(0.521430297747 4.16545934575e-12 3.05650915834e-12)
(0.514269546451 3.90564704092e-12 3.22119219742e-12)
(0.506787506425 3.64536083542e-12 3.37197258734e-12)
(0.498952518433 3.3861551594e-12 3.50860771778e-12)
(0.490727184027 3.12952727533e-12 3.63082297604e-12)
(0.482066919878 2.87679033233e-12 3.73828142297e-12)
(0.4729180797 2.62908231976e-12 3.83050662003e-12)
(0.463215483694 2.38744429035e-12 3.9069402486e-12)
(0.452879123349 2.1527527094e-12 3.96680123403e-12)
(0.441809702276 1.92587881647e-12 4.00909925475e-12)
(0.429882513883 1.7075560997e-12 4.03252923891e-12)
(0.416938920903 1.49858586936e-12 4.0353656801e-12)
(0.402774367347 1.29955029602e-12 4.01531603029e-12)
(0.387121432537 1.11109374379e-12 3.9692840841e-12)
(0.369626108271 9.34007598673e-13 3.89308073898e-12)
(0.349816062387 7.69017998696e-13 3.78090827439e-12)
(0.32706420162 6.17037866949e-13 3.62483070114e-12)
(0.300569489046 4.79121351308e-13 3.41422630425e-12)
(0.269436340615 3.56563098045e-13 3.13619069354e-12)
(0.233055656281 2.5085238627e-13 2.77946382452e-12)
(0.191935692605 1.63468611323e-13 2.34448147766e-12)
(0.148172487333 9.53811475346e-14 1.85179095591e-12)
(0.104235773972 4.62661774685e-14 1.33078381473e-12)
(0.0614886633933 1.52186522882e-14 8.00980144296e-13)
(0.0202879198649 8.07571727452e-16 2.70348619645e-13)
(0.62785546583 4.49961537305e-13 -4.32169327086e-12)
(0.627066303444 1.31800970185e-12 -4.21856563376e-12)
(0.62560520117 2.11688882939e-12 -4.03268813175e-12)
(0.623581099498 2.83785828922e-12 -3.77995082574e-12)
(0.62108995011 3.47505826645e-12 -3.47496129918e-12)
(0.61821258037 4.02721719055e-12 -3.13064530913e-12)
(0.615014738502 4.49518725352e-12 -2.75759358051e-12)
(0.611548431933 4.88222002249e-12 -2.36509018795e-12)
(0.607853790757 5.19252296716e-12 -1.96029323519e-12)
(0.603960982017 5.43121444503e-12 -1.54916242148e-12)
(0.599891946926 5.60394135474e-12 -1.13670968507e-12)
(0.59566188386 5.71651255931e-12 -7.26741790101e-13)
(0.5912804752 5.77482312693e-12 -3.22703534344e-13)
(0.586752886106 5.78464038659e-12 7.29302028163e-14)
(0.582080570416 5.75146477971e-12 4.58114029878e-13)
(0.57726191588 5.6805902202e-12 8.31505378742e-13)
(0.572292754563 5.57690639722e-12 1.19150344177e-12)
(0.567166757428 5.44485968995e-12 1.53742180083e-12)
(0.561875726012 5.28877845065e-12 1.86838375309e-12)
(0.556409789243 5.11235820281e-12 2.18397415878e-12)
(0.550757509492 4.91930352753e-12 2.48372973598e-12)
(0.544905898912 4.71271753371e-12 2.76746546179e-12)
(0.538840344422 4.49509840577e-12 3.03495864584e-12)
(0.532544436999 4.26945848021e-12 3.28608105893e-12)
(0.52599969783 4.0380701351e-12 3.52071020657e-12)
(0.519185189682 3.80267737604e-12 3.73871667219e-12)
(0.512076996102 3.56515292396e-12 3.93999238963e-12)
(0.504647542934 3.32732376537e-12 4.12431390873e-12)
(0.496864725136 3.09073295631e-12 4.29140574571e-12)
(0.488690785588 2.85652716971e-12 4.4409592721e-12)
(0.480080869277 2.62589169335e-12 4.57256514272e-12)
(0.47098114277 2.39982658246e-12 4.68559150234e-12)
(0.461326319967 2.17922640779e-12 4.77931710675e-12)
(0.451036363239 1.96501400959e-12 4.85280025817e-12)
(0.440012022083 1.75790804498e-12 4.90479729658e-12)
(0.428128712307 1.55857943043e-12 4.93370027855e-12)
(0.415228004391 1.36771104375e-12 4.93738224204e-12)
(0.401105658819 1.18591970716e-12 4.91300273045e-12)
(0.3854947333 1.01383931343e-12 4.8567754538e-12)
(0.36804197777 8.520875734e-13 4.76351532949e-12)
(0.348276362773 7.0138802225e-13 4.62612225339e-12)
(0.325573250083 5.62613057565e-13 4.43484660351e-12)
(0.299136588409 4.36686950455e-13 4.17667994092e-12)
(0.268081036303 3.24832194186e-13 3.83589691664e-12)
(0.231815727693 2.28458546216e-13 3.39889137937e-12)
(0.19086806803 1.48853071456e-13 2.86648523183e-12)
(0.147329965594 8.6863331444e-14 2.26395015756e-12)
(0.103640712154 4.21542048852e-14 1.62702455676e-12)
(0.0611387460907 1.3872800826e-14 9.79336280458e-13)
(0.020173090873 7.37700377714e-16 3.30562396284e-13)
(0.625032469155 4.05919317571e-13 -5.0113694929e-12)
(0.624237566252 1.18859195839e-12 -4.8918050149e-12)
(0.622765298765 1.90824160964e-12 -4.67578990146e-12)
(0.620724833389 2.55739131539e-12 -4.38185962243e-12)
(0.61821259956 3.13064393438e-12 -4.02715561557e-12)
(0.615310273469 3.62662291319e-12 -3.62659736935e-12)
(0.612084780838 4.0460486414e-12 -3.19275615855e-12)
(0.608589523323 4.3918307113e-12 -2.73624740058e-12)
(0.604866122246 4.66801056384e-12 -2.26574507099e-12)
(0.600946231316 4.87923388424e-12 -1.78821385901e-12)
(0.596853195508 5.03087066898e-12 -1.30943699267e-12)
(0.592603475991 5.12796338418e-12 -8.33984743092e-13)
(0.588207834848 5.17605739456e-12 -3.65636105392e-13)
(0.583672304442 5.18077700488e-12 9.27218846536e-14)
(0.578998974737 5.14751549916e-12 5.38694498728e-13)
(0.574186629932 5.08054922934e-12 9.70467474537e-13)
(0.569231259851 4.98436217608e-12 1.38666306643e-12)
(0.56412646476 4.86333125228e-12 1.78620657493e-12)
(0.558863765924 4.7211105981e-12 2.16843326122e-12)
(0.553432828859 4.56115025856e-12 2.53267912982e-12)
(0.54782160187 4.38664940276e-12 2.87870009781e-12)
(0.542016368915 4.20049699395e-12 3.20604374657e-12)
(0.53600171297 4.00507529318e-12 3.5147333091e-12)
(0.529760383298 3.80277789401e-12 3.80452906925e-12)
(0.523273057118 3.59548394512e-12 4.07533765425e-12)
(0.516517982354 3.38516207376e-12 4.32699334303e-12)
(0.509470482918 3.17329091739e-12 4.55940474548e-12)
(0.502102300412 2.96117294185e-12 4.77233681704e-12)
(0.494380735198 2.75015801495e-12 4.96548966635e-12)
(0.48626753393 2.54155667716e-12 5.13842360137e-12)
(0.477717447779 2.33611318908e-12 5.29062443487e-12)
(0.468676352292 2.13467402698e-12 5.421458182e-12)
(0.45907877122 1.93829276285e-12 5.53004506455e-12)
(0.448844574899 1.74758090202e-12 5.61526881195e-12)
(0.437874517263 1.5632162247e-12 5.67566045335e-12)
(0.426044117181 1.38580041971e-12 5.70933469672e-12)
(0.413195157359 1.21591055878e-12 5.71380285435e-12)
(0.399123747282 1.05408823305e-12 5.68575662732e-12)
(0.38356349365 9.00878728724e-13 5.6207690227e-12)
(0.366162035957 7.5690102229e-13 5.51280811318e-12)
(0.346449891467 6.22800163131e-13 5.35361542758e-12)
(0.323805352455 4.99343428901e-13 5.13186673931e-12)
(0.297438325162 3.87399369731e-13 4.83248504399e-12)
(0.266475677917 2.88078340306e-13 4.43734606646e-12)
(0.230348135108 2.02547134373e-13 3.93092222254e-12)
(0.189605427296 1.31928253175e-13 3.31458312051e-12)
(0.146334084699 7.70109354543e-14 2.61772455663e-12)
(0.102937472341 3.73930792135e-14 1.88138882504e-12)
(0.0607252295851 1.23131802762e-14 1.13257185522e-12)
(0.0200373912882 6.57255054168e-16 3.8234293178e-13)
(0.621893256446 3.57810401124e-13 -5.5981168517e-12)
(0.621092277966 1.04766974504e-12 -5.46421253034e-12)
(0.619608107206 1.68200876045e-12 -5.22234488577e-12)
(0.617550011881 2.25367867881e-12 -4.89282814046e-12)
(0.615014766316 2.75760869536e-12 -4.49516273992e-12)
(0.612084790452 3.19278438464e-12 -4.04602340405e-12)
(0.608828129852 3.5596427213e-12 -3.55962172162e-12)
(0.605299576699 3.8607554969e-12 -3.04792314774e-12)
(0.601542292155 4.09980707256e-12 -2.52072417984e-12)
(0.597589512119 4.28107565136e-12 -1.98601615906e-12)
(0.593466121151 4.4093487178e-12 -1.45030446133e-12)
(0.589190012437 4.48952407497e-12 -9.18862490474e-13)
(0.58477322329 4.52665949364e-12 -3.95637366192e-13)
(0.580222867515 4.52567471303e-12 1.15925249448e-13)
(0.575541895771 4.49113748854e-12 6.13273467252e-13)
(0.57072971439 4.42754424045e-12 1.09417547733e-12)
(0.565782687904 4.33887209452e-12 1.55745846499e-12)
(0.560694544084 4.22894158633e-12 2.00179459041e-12)
(0.555456693881 4.10109942298e-12 2.42657174617e-12)
(0.550058472944 3.95837861888e-12 2.83109940487e-12)
(0.544487306511 3.80354323263e-12 3.21526401778e-12)
(0.538728795367 3.6391893214e-12 3.57854079864e-12)
(0.532766717127 3.46728695178e-12 3.92102566708e-12)
(0.526582934033 3.28986984379e-12 4.24238716094e-12)
(0.520157195343 3.10873374743e-12 4.54285508614e-12)
(0.513466818725 2.92523887119e-12 4.82208598784e-12)
(0.506486230175 2.7407728088e-12 5.07997046963e-12)
(0.499186334933 2.55650018441e-12 5.31630068856e-12)
(0.491533681535 2.37345470058e-12 5.53070500772e-12)
(0.483489365957 2.19244560875e-12 5.72287311041e-12)
(0.475007600459 2.01455732154e-12 5.89204583483e-12)
(0.466033839011 1.84044778356e-12 6.0375717886e-12)
(0.456502302918 1.67066991416e-12 6.1584442431e-12)
(0.446332678986 1.50588213003e-12 6.25337579134e-12)
(0.435425656565 1.34660755011e-12 6.32072481095e-12)
(0.423656812436 1.19338297617e-12 6.3583410014e-12)
(0.410868122242 1.04666795232e-12 6.36342654141e-12)
(0.396856055192 9.06970530754e-13 6.33224778908e-12)
(0.381354817033 7.74790843008e-13 6.25985083054e-12)
(0.364013047436 6.50604422855e-13 6.13944129006e-12)
(0.344363030034 5.34990871474e-13 5.96177754056e-12)
(0.321786427246 4.2861764321e-13 5.71419799683e-12)
(0.295500007358 3.32258501716e-13 5.37990128986e-12)
(0.264644664084 2.46830954691e-13 4.9387839085e-12)
(0.228675728888 1.73406361058e-13 4.37387147949e-12)
(0.188167915107 1.12934173569e-13 3.6872181762e-12)
(0.145200985188 6.59213870148e-14 2.9117580194e-12)
(0.102137515151 3.20147316702e-14 2.09279425706e-12)
(0.0602548588411 1.05456754212e-14 1.25995476182e-12)
(0.0198830345851 5.64188504369e-16 4.25404503683e-13)
(0.618486127864 3.07485978673e-13 -6.08579524002e-12)
(0.617679195506 8.99772098234e-13 -5.94015895205e-12)
(0.61618321495 1.44392334995e-12 -5.67585515784e-12)
(0.614107339001 1.93393114173e-12 -5.31636161831e-12)
(0.611548457921 2.36499346453e-12 -4.88216470767e-12)
(0.608589532992 2.73626648387e-12 -4.39179766858e-12)
(0.605299577673 3.04793404981e-12 -3.8607429809e-12)
(0.601734683138 3.30220143714e-12 -3.30219484882e-12)
(0.59793951987 3.50234844976e-12 -2.72693039777e-12)
(0.593948932392 3.65210364023e-12 -2.14384233994e-12)
(0.589789422513 3.75581052885e-12 -1.56006602408e-12)
(0.585480438309 3.81791461782e-12 -9.8142653588e-13)
(0.581035454311 3.84287763329e-12 -4.12404468975e-13)
(0.576462860354 3.83517171223e-12 1.43283367131e-13)
(0.571766687698 3.79906115076e-12 6.82893563494e-13)
(0.566947201588 3.73846941204e-12 1.20426130297e-12)
(0.562001385273 3.65697667937e-12 1.70583784956e-12)
(0.556923334606 3.55797060107e-12 2.18648904888e-12)
(0.55170457619 3.44437562088e-12 2.64542670735e-12)
(0.546334316202 3.31906000794e-12 3.08218883347e-12)
(0.54079962176 3.18414354603e-12 3.49651365163e-12)
(0.535085532085 3.04187477105e-12 3.88820531049e-12)
(0.529175092566 2.89398514584e-12 4.25722116673e-12)
(0.523049301179 2.74247191393e-12 4.60343840152e-12)
(0.516686953078 2.58853979489e-12 4.92693288321e-12)
(0.510064365266 2.4330198452e-12 5.22757569574e-12)
(0.503154958337 2.27740905602e-12 5.50526434812e-12)
(0.495928665537 2.12227976873e-12 5.75978474806e-12)
(0.488351129589 1.96880983882e-12 5.99079078099e-12)
(0.480382633176 1.81750757151e-12 6.19780768319e-12)
(0.471976687392 1.66876136473e-12 6.38025533929e-12)
(0.463078170428 1.52350775067e-12 6.53720227745e-12)
(0.453620861207 1.38211405129e-12 6.66762938187e-12)
(0.443524142008 1.24500662853e-12 6.77008791981e-12)
(0.432688538953 1.11263403203e-12 6.84278527698e-12)
(0.420989613116 9.8539479053e-13 6.88334763542e-12)
(0.40826948724 8.63642399809e-13 6.88870136968e-12)
(0.394324976632 7.47829532234e-13 6.85478792261e-12)
(0.378890913752 6.3827372357e-13 6.77615085732e-12)
(0.361617027618 5.3537391e-13 6.64540450427e-12)
(0.342037564905 4.39726206213e-13 6.45246270751e-12)
(0.319537967325 3.51853104418e-13 6.18357214357e-12)
(0.293342715345 2.7240141087e-13 5.82051278848e-12)
(0.262608419467 2.02084469004e-13 5.3416652072e-12)
(0.226817741559 1.41796626951e-13 4.72905635364e-12)
(0.186572565207 9.22803998297e-14 3.98552926362e-12)
(0.143944349145 5.38581867048e-14 3.14696712753e-12)
(0.101250562919 2.61590841545e-14 2.26191140264e-12)
(0.0597333563339 8.61899517882e-15 1.36189444079e-12)
(0.0197118986759 4.61036627206e-16 4.59884449191e-13)
(0.614847417585 2.55004167411e-13 -6.47868025751e-12)
(0.614035110556 7.46801274533e-13 -6.32354609733e-12)
(0.612528253245 1.19841865741e-12 -6.0410002969e-12)
(0.610435587248 1.60413768238e-12 -5.65685831105e-12)
(0.607853805722 1.96022102248e-12 -5.19248845231e-12)
(0.604866123496 2.265727999e-12 -4.66798016055e-12)
(0.6015422864 2.52071699849e-12 -4.09981374732e-12)
(0.59793951393 2.72692243289e-12 -3.50233648441e-12)
(0.594103882421 2.88712089515e-12 -2.88714634197e-12)
(0.590071805548 3.00458212443e-12 -2.26398623666e-12)
(0.585871421657 3.08303369866e-12 -1.64051528909e-12)
(0.581523806212 3.12644787845e-12 -1.02307404087e-12)
(0.577043991282 3.13879983694e-12 -4.16574868661e-13)
(0.572441805483 3.12399734126e-12 1.75108725848e-13)
(0.567722559922 3.08576215406e-12 7.48796648295e-13)
(0.562887607558 3.02767661679e-12 1.30226690005e-12)
(0.557934800403 2.9529041242e-12 1.83416956463e-12)
(0.552858863897 2.86441354021e-12 2.34306746074e-12)
(0.547651702156 2.76483564393e-12 2.82846965463e-12)
(0.542302642159 2.65656702703e-12 3.28981868219e-12)
(0.53679861956 2.54151499037e-12 3.72679460197e-12)
(0.531124303834 2.42157411424e-12 4.13969605235e-12)
(0.525262155756 2.29795031484e-12 4.52817638301e-12)
(0.519192405807 2.17221823329e-12 4.89263221252e-12)
(0.512892937756 2.0455731189e-12 5.2328612373e-12)
(0.506339057084 1.91861999795e-12 5.54890733645e-12)
(0.499503118626 1.79234565099e-12 5.84079269931e-12)
(0.492353980905 1.66727995e-12 6.10825748401e-12)
(0.484856245066 1.54396064785e-12 6.35106989052e-12)
(0.476969222255 1.42293044315e-12 6.56860275211e-12)
(0.468645552448 1.30458611222e-12 6.76036609228e-12)
(0.459829366541 1.18930554887e-12 6.92538283859e-12)
(0.450453836863 1.07744194497e-12 7.06248798055e-12)
(0.440437891581 9.69219681136e-13 7.17016345e-12)
(0.429681764384 8.64964081772e-13 7.24645119683e-12)
(0.418060896357 7.64919326213e-13 7.28882473415e-12)
(0.405417482135 6.69433232488e-13 7.29395902092e-12)
(0.391548642212 5.78757213581e-13 7.25750442849e-12)
(0.376189838498 4.93120517239e-13 7.1736109727e-12)
(0.358991955471 4.12842701277e-13 7.0344122869e-12)
(0.339491376713 3.38359094867e-13 6.8291522823e-12)
(0.317077705329 2.70067595319e-13 6.54320823684e-12)
(0.290983939599 2.08547884405e-13 6.1572805491e-12)
(0.260383995538 1.54356295583e-13 5.64862450621e-12)
(0.224790332605 1.08057921861e-13 4.9987252895e-12)
(0.184833763189 7.02235659583e-14 4.21133546811e-12)
(0.142575761397 4.09547064452e-14 3.32470922604e-12)
(0.100284853653 1.9892065358e-14 2.38964779922e-12)
(0.0591655712394 6.55558974609e-15 1.43889990428e-12)
(0.0195255748608 3.51661921705e-16 4.85942985281e-13)
(0.611003679353 2.01878775815e-13 -6.78352565473e-12)
(0.610187000108 5.91457397248e-13 -6.6200452511e-12)
(0.608670984551 9.4878699338e-13 -6.3234500603e-12)
(0.606563604858 1.26900884485e-12 -5.91967391054e-12)
(0.603960978564 1.54913930194e-12 -5.43124727745e-12)
(0.600946217287 1.78818644457e-12 -4.87923042726e-12)
(0.597589493368 1.98600564918e-12 -4.28112562099e-12)
(0.593948914872 2.14382661336e-12 -3.65213331255e-12)
(0.590071794607 2.26391210386e-12 -3.0046266077e-12)
(0.585996014312 2.34892763738e-12 -2.3490058108e-12)
(0.581751311308 2.40211983387e-12 -1.69354401683e-12)
(0.577360409165 2.42676973747e-12 -1.04497751244e-12)
(0.572839971598 2.42637867686e-12 -4.0864264361e-13)
(0.568201388926 2.40411026286e-12 2.11250443738e-13)
(0.563451419168 2.36326898353e-12 8.11540584273e-13)
(0.5585927089 2.30750003229e-12 1.38978481298e-12)
(0.553624217153 2.23908329873e-12 1.94454847349e-12)
(0.548541561539 2.16064945604e-12 2.474500174e-12)
(0.543337300885 2.07460718169e-12 2.97906080458e-12)
(0.53800116348 1.98259576195e-12 3.45790990515e-12)
(0.53252022489 1.88686419061e-12 3.91086082422e-12)
(0.526879034211 1.78850873132e-12 4.3380712283e-12)
(0.521059682628 1.68865842404e-12 4.73960796683e-12)
(0.515041803102 1.58881378398e-12 5.11575382932e-12)
(0.508802484913 1.48910344091e-12 5.46659122404e-12)
(0.502316081359 1.39046571692e-12 5.79232687379e-12)
(0.4955538828 1.29358209659e-12 6.09288752751e-12)
(0.488483619802 1.19851000464e-12 6.36824533157e-12)
(0.481068751241 1.10570358653e-12 6.6180432168e-12)
(0.47326747836 1.01548140169e-12 6.84190842456e-12)
(0.465031405375 9.27956431139e-13 7.0391019292e-12)
(0.456303736856 8.43219554438e-13 7.20875510065e-12)
(0.447016856517 7.61502970728e-13 7.34959425709e-12)
(0.437089063577 6.82893024387e-13 7.46005337905e-12)
(0.426420140233 6.07576836735e-13 7.53803820122e-12)
(0.414885271405 5.35635279473e-13 7.58090091232e-12)
(0.402326616509 4.67206932266e-13 7.58510552476e-12)
(0.388541529932 4.02497790935e-13 7.546089217e-12)
(0.373266077722 3.41609906496e-13 7.45769637185e-12)
(0.356152340425 2.84776583232e-13 7.31166787481e-12)
(0.336738988595 2.32321024885e-13 7.09674807026e-12)
(0.314420143631 1.84481521467e-13 6.79766972822e-12)
(0.288438089992 1.4163589065e-13 6.39439121421e-12)
(0.25798555199 1.0420659516e-13 5.86343986495e-12)
(0.222607027107 7.25687144651e-14 5.18618097356e-12)
(0.182963621093 4.69678425535e-14 4.36737845789e-12)
(0.14110500302 2.7338027079e-14 3.447092305e-12)
(0.099247347702 1.32608531286e-14 2.47745788422e-12)
(0.0585556008638 4.36449620041e-15 1.49180120805e-12)
(0.0193254076688 2.32130110365e-16 5.03837984686e-13)
(0.606973619513 1.48634809747e-13 -7.00635068296e-12)
(0.606153935498 4.35387858392e-13 -6.83699564011e-12)
(0.604631167977 6.97904730409e-13 -6.52966896371e-12)
(0.602512122547 9.32514641976e-13 -6.11093495575e-12)
(0.599891919615 1.1366922464e-12 -5.60397466505e-12)
(0.596853161114 1.30939130806e-12 -5.03085147224e-12)
(0.593466084734 1.45026351244e-12 -4.4093796001e-12)
(0.5897893892 1.56005535273e-12 -3.75586143868e-12)
(0.585871396048 1.6404390163e-12 -3.08315516828e-12)
(0.581751297134 1.69346384493e-12 -2.40222354775e-12)
(0.577460336779 1.72173113737e-12 -1.72179364225e-12)
(0.573022855855 1.72793356823e-12 -1.04917838021e-12)
(0.56845717555 1.71487106933e-12 -3.89908547035e-13)
(0.563776326358 1.68540297357e-12 2.51299418328e-13)
(0.558988640641 1.64220869977e-12 8.71481766408e-13)
(0.554098231071 1.58831857846e-12 1.46801206583e-12)
(0.549105376558 1.52587455436e-12 2.03896292222e-12)
(0.544006834163 1.45694059771e-12 2.58348685421e-12)
(0.53879609147 1.38376655688e-12 3.10077264849e-12)
(0.533463569362 1.30780167867e-12 3.59071783952e-12)
(0.527996780464 1.23049569186e-12 4.05335268844e-12)
(0.522380443686 1.15308385764e-12 4.48872093259e-12)
(0.516596550253 1.07623579636e-12 4.89733300365e-12)
(0.510624371295 1.00094219798e-12 5.27941778561e-12)
(0.504440391366 9.27825627838e-13 5.63522466472e-12)
(0.498018146019 8.56970599198e-13 5.96522099879e-12)
(0.491327934499 7.88847551041e-13 6.2693551503e-12)
(0.484336370216 7.23439613148e-13 6.5476392745e-12)
(0.477005721024 6.60823640648e-13 6.79992315503e-12)
(0.469292977023 6.0109708211e-13 7.02583240576e-12)
(0.46114856324 5.44162062726e-13 7.22460609749e-12)
(0.452514584668 4.90019473134e-13 7.39542965768e-12)
(0.443322446501 4.3860059116e-13 7.53700931552e-12)
(0.433489625283 3.89835763338e-13 7.64770809187e-12)
(0.422915265873 3.43741287282e-13 7.72538650707e-12)
(0.411474129242 3.00204949061e-13 7.7672349271e-12)
(0.39900819888 2.59323122341e-13 7.76963292e-12)
(0.385314958402 2.21151324458e-13 7.72780568821e-12)
(0.370131021203 1.85590520029e-13 7.63539118337e-12)
(0.35310967582 1.5280158028e-13 7.48386830843e-12)
(0.333792004012 1.2293360596e-13 7.26161865173e-12)
(0.311576977556 9.61214328461e-14 6.95296278314e-12)
(0.285716903167 7.25301097504e-14 6.53739105615e-12)
(0.255424743054 5.24137975498e-14 5.99115808304e-12)
(0.220279069248 3.59084476514e-14 5.29585437854e-12)
(0.180972280737 2.29542677056e-14 4.45735826633e-12)
(0.139540289861 1.32569547679e-14 3.51698099939e-12)
(0.0981438959246 6.40309454059e-15 2.52734728975e-12)
(0.0579068894662 2.10345919963e-15 1.52177112425e-12)
(0.0191125272788 1.12502767348e-16 5.13953259138e-13)