/*--------------------------------*- C++ -*----------------------------------*\
| =========                 |                                                 |
| \\      /  F ield         | OpenFOAM: The Open Source CFD Toolbox           |
|  \\    /   O peration     | Version:  3.0.1                                 |
|   \\  /    A nd           | Web:      www.OpenFOAM.org                      |
|    \\/     M anipulation  |                                                 |
\*---------------------------------------------------------------------------*/
FoamFile
{
    version     2.0;
    format      ascii;
    class       volVectorField;
    location    "50000";
    object      wallShearStress;
}
// * * * * * * * * * * * * * * * * * * * * * * * * * * * * * * * * * * * * * //

dimensions      [0 2 -2 0 0 0 0];

internalField   uniform (0 0 0);

boundaryField
{
    side_walls
    {
        type            calculated;
        value           nonuniform List<vector> 
100
(
(-0.00121559340488 -2.42769323639e-16 -2.55719317772e-15)
(-0.00121354131573 -2.36294306651e-16 -7.46532074731e-15)
(-0.00120969565577 -2.25773860796e-16 -1.19797599643e-14)
(-0.00120427327401 -2.1034822459e-16 -1.60478846642e-14)
(-0.00119745712495 -1.91859457728e-16 -1.96221659157e-14)
(-0.00118940211564 -1.70442687844e-16 -2.26958700584e-14)
(-0.00118023963603 -1.46088255186e-16 -2.52520277563e-14)
(-0.00117008115733 -1.19436497914e-16 -2.72987793617e-14)
(-0.00115902113776 -9.08841007469e-17 -2.88456480936e-14)
(-0.00114713938737 -6.03947792856e-17 -2.99079262062e-14)
(-0.00113450299262 -2.90579528898e-17 -3.05084148108e-14)
(-0.00112116787009 3.85845367899e-18 -3.06740802293e-14)
(-0.00110718000049 3.69618939481e-17 -3.04333017849e-14)
(-0.00109257638181 7.10406176265e-17 -2.98173468153e-14)
(-0.00107738573255 1.04578493851e-16 -2.8859022253e-14)
(-0.00106162897079 1.38256677285e-16 -2.75953516305e-14)
(-0.00104531949065 1.708930335e-16 -2.60598092617e-14)
(-0.00102846325628 2.0255413326e-16 -2.42910647496e-14)
(-0.00101105873222 2.32726343822e-16 -2.23253200139e-14)
(-0.000993096670589 2.60580632939e-16 -2.02017467357e-14)
(-0.000974559778475 2.86142527634e-16 -1.79580166592e-14)
(-0.000955422294174 3.08164423346e-16 -1.56321182541e-14)
(-0.000935649510117 3.26623690618e-16 -1.32640199458e-14)
(-0.000915197292969 3.40830234042e-16 -1.08896424262e-14)
(-0.000894011670667 3.49696860214e-16 -8.54688124892e-15)
(-0.000872028582777 3.53015976738e-16 -6.27287449439e-15)
(-0.000849173927446 3.49930892322e-16 -4.10205356991e-15)
(-0.000825364086173 3.39852992624e-16 -2.06860223645e-15)
(-0.000800507166181 3.22294938497e-16 -2.04142733987e-16)
(-0.000774505263466 2.96946888663e-16 1.46281656906e-15)
(-0.000747258103711 2.63516152563e-16 2.90721618931e-15)
(-0.000718668435002 2.22241835701e-16 4.10815319263e-15)
(-0.000688649480113 1.7363052823e-16 5.05123187265e-15)
(-0.000657134543547 1.18706597412e-16 5.72820912592e-15)
(-0.000624088438589 5.9080184622e-17 6.13932369048e-15)
(-0.000589519708398 -2.96135810259e-18 6.29387516011e-15)
(-0.000553491703961 -6.46599615582e-17 6.21053633248e-15)
(-0.000516129659758 -1.22994881277e-16 5.91734590302e-15)
(-0.000477620401716 -1.7484280163e-16 5.45031067206e-15)
(-0.00043820181092 -2.17500286594e-16 4.85105219532e-15)
(-0.000398141092178 -2.48988833289e-16 4.16383983508e-15)
(-0.000357704076682 -2.68187328507e-16 3.43216202041e-15)
(-0.000317121025848 -2.74436007529e-16 2.69639848318e-15)
(-0.000276555719247 -2.67248135545e-16 1.99280554673e-15)
(-0.000236082325426 -2.45805012953e-16 1.35352348751e-15)
(-0.000195668378239 -2.08736515965e-16 8.07502325744e-16)
(-0.000155152230353 -1.54870063679e-16 3.80883062135e-16)
(-0.000114184222052 -8.52699334906e-17 9.51683822394e-17)
(-7.20428553767e-05 -7.6086344255e-18 -3.75205023792e-17)
(-2.7019743846e-05 4.62064337251e-17 -1.82703369747e-17)
(-0.00121559315881 2.55676439845e-15 2.42937599534e-16)
(-0.00121354107901 7.46584400482e-15 2.36373305217e-16)
(-0.00120969543619 1.19812091873e-14 2.2576194459e-16)
(-0.00120427307828 1.60485606755e-14 2.10460441383e-16)
(-0.0011974569586 1.96240170626e-14 1.92056341885e-16)
(-0.00118940198297 2.26971967432e-14 1.70465944734e-16)
(-0.00118023954001 2.52536646163e-14 1.46107709583e-16)
(-0.0011700810996 2.73014021045e-14 1.1951513012e-16)
(-0.00115902111865 2.88475384822e-14 9.07223062521e-17)
(-0.00114713940599 2.99093613542e-14 6.04736167953e-17)
(-0.00113450304702 3.0509892473e-14 2.89360164944e-17)
(-0.00112116795741 3.06752139173e-14 -3.90921510536e-18)
(-0.00110718011717 3.04337603253e-14 -3.7143599992e-17)
(-0.00109257652375 2.98179039137e-14 -7.08738331274e-17)
(-0.00107738589536 2.8859665448e-14 -1.04683859693e-16)
(-0.0010616291499 2.75952948683e-14 -1.38384460902e-16)
(-0.00104531968152 2.60596655677e-14 -1.7081076042e-16)
(-0.00102846345449 2.42911766968e-14 -2.02638444534e-16)
(-0.00101105893361 2.23253249266e-14 -2.32567355284e-16)
(-0.000993096871359 2.02020797221e-14 -2.60683588535e-16)
(-0.000974559975221 1.79584996046e-14 -2.8607358261e-16)
(-0.000955422483963 1.5632639152e-14 -3.08319393076e-16)
(-0.000935649690492 1.32643210736e-14 -3.26755333663e-16)
(-0.000915197461977 1.0889731644e-14 -3.40898942738e-16)
(-0.000894011826858 8.54685285834e-15 -3.49750463128e-16)
(-0.000872028725168 6.27284216872e-15 -3.53102219136e-16)
(-0.000849174055513 4.10204277197e-15 -3.49951777794e-16)
(-0.000825364199804 2.06854957086e-15 -3.39936818446e-16)
(-0.000800507265614 2.03947893492e-16 -3.22317712484e-16)
(-0.000774505349258 -1.46297988321e-15 -2.96897606845e-16)
(-0.00074725817667 -2.90739126903e-15 -2.63452558445e-16)
(-0.000718668496118 -4.10824727402e-15 -2.22235214615e-16)
(-0.000688649530514 -5.05128870868e-15 -1.73668743856e-16)
(-0.000657134584427 -5.72832123579e-15 -1.18713469449e-16)
(-0.000624088471183 -6.13941764558e-15 -5.91120212404e-17)
(-0.000589519733907 -6.29396347851e-15 2.89989548842e-18)
(-0.000553491723532 -6.21063877139e-15 6.46379722756e-17)
(-0.000516129674453 -5.91747116099e-15 1.22965458304e-16)
(-0.000477620412491 -5.45041444779e-15 1.74834859904e-16)
(-0.000438201818612 -4.8511148666e-15 2.17505596592e-16)
(-0.000398141097504 -4.16388610994e-15 2.48974702908e-16)
(-0.000357704080239 -3.43222231015e-15 2.68177742687e-16)
(-0.000317121028121 -2.69646041871e-15 2.74441119277e-16)
(-0.000276555720622 -1.99283963836e-15 2.67264005222e-16)
(-0.000236082326199 -1.35354451121e-15 2.45825355257e-16)
(-0.000195668378631 -8.0751175615e-16 2.08753120457e-16)
(-0.000155152230522 -3.80883409887e-16 1.5487561664e-16)
(-0.000114184222108 -9.516833418e-17 8.52714990799e-17)
(-7.20428553873e-05 3.75201702955e-17 7.60862013965e-18)
(-2.7019743846e-05 1.8270279668e-17 -4.62063755934e-17)
)
;
    }
    inlet
    {
        type            cyclic;
    }
    outlet
    {
        type            cyclic;
    }
    side_left
    {
        type            symmetryPlane;
    }
    side_bottom
    {
        type            symmetryPlane;
    }
}


// ************************************************************************* //
