/*--------------------------------*- C++ -*----------------------------------*\
| =========                 |                                                 |
| \\      /  F ield         | OpenFOAM: The Open Source CFD Toolbox           |
|  \\    /   O peration     | Version:  4.1                                   |
|   \\  /    A nd           | Web:      www.OpenFOAM.org                      |
|    \\/     M anipulation  |                                                 |
\*---------------------------------------------------------------------------*/
FoamFile
{
    version     2.0;
    format      ascii;
    class       volVectorField;
    location    "30000";
    object      cellCentres;
}
// * * * * * * * * * * * * * * * * * * * * * * * * * * * * * * * * * * * * * //

dimensions      [0 1 0 0 0 0 0];

internalField   nonuniform List<vector> 
21000
(
(0.0343146337555863 1.00169621456475 0)
(0.102942020212648 1.001330047543 -1.61199032140161e-18)
(0.171460583130584 0.998102251264775 0)
(0.239325437891812 0.98860836155776 -3.2524829236559e-18)
(0.305359726728276 0.970611710904625 0)
(0.36823650122166 0.943536385620649 0)
(0.42760918673135 0.909278321469641 9.47389654895732e-20)
(0.484120965125129 0.870410482137292 -6.66039738024733e-18)
(0.538576957301056 0.828690471960277 6.57898625148308e-18)
(0.591679503520338 0.78526081372897 8.11771451758966e-18)
(0.644030622647103 0.740931127041909 3.19422067135759e-18)
(0.696182611599647 0.69637447664053 -4.45330711913669e-18)
(0.748598245812787 0.652136531371129 0)
(0.80147413986488 0.608446987264128 -8.20908091886765e-18)
(0.85477773238313 0.565275145074063 0)
(0.908440570797695 0.522547598582846 0)
(0.962392454395966 0.480182661980581 0)
(1.01656098945994 0.438092438087543 0)
(1.07087517228312 0.396187858848554 2.15867499566127e-18)
(1.12533693264863 0.354475065686604 -6.74189161077707e-18)
(1.1800952594573 0.313155777137216 6.2387652036918e-18)
(1.23538489183188 0.272552349346154 6.20562062084538e-18)
(1.2914531340677 0.233033754382519 0)
(1.3485559908632 0.195036877608789 -1.98106545274721e-18)
(1.40696440953721 0.159091909733889 0)
(1.46691788733051 0.125805238767616 0)
(1.52852356030946 0.0956998812077533 1.77229447484723e-18)
(1.59175536483824 0.0691847959810226 -1.01208676048225e-17)
(1.65651421607626 0.0466661142374481 9.59456781023833e-20)
(1.72263296413891 0.0285499706127523 0)
(1.78987380498798 0.0152150343329826 -3.14354673932917e-18)
(1.85792369468356 0.00698178262934679 3.12362517404233e-18)
(1.92641007194201 0.00378423774987635 2.81189982628249e-16)
(1.99503173584201 0.0033924291295009 2.89872420578141e-16)
(2.06366100335342 0.00339242912950104 0)
(2.13229027086459 0.00339242912950087 -3.12805342086975e-18)
(2.20091953837559 0.00339242912950087 -9.63735265669931e-20)
(2.26954880588676 0.00339242912950096 0)
(2.33817807339811 0.00339242912950095 0)
(2.40680734090928 0.00339242912950096 0)
(2.47543660842018 0.00339242912950096 -3.12805342089384e-18)
(2.54406587593142 0.00339242912950079 0)
(2.61269514344286 0.00339242912950104 -9.63735265669929e-20)
(2.68132441095397 0.00339242912950087 0)
(2.74995367846514 0.00339242912950101 9.63735265669958e-20)
(2.81858294597669 0.00339242912950099 0)
(2.88721221348786 0.00339242912950117 -2.81253651394383e-16)
(2.95584148099866 0.00339242912950096 -2.81616464562893e-16)
(3.02447074850953 0.00339242912950096 -6.25610684179385e-18)
(3.09310001602074 0.00339242912950087 3.03167989427229e-18)
(3.16172928353221 0.00339242912950095 6.2561068417462e-18)
(3.23035855104335 0.00339242912950096 0)
(3.29898781855453 0.0033924291295009 2.7973781144423e-16)
(3.36761708606606 0.00339242912950091 2.82193815519218e-16)
(3.43624635357723 0.00339242912950101 0)
(3.50487562108804 0.00339242912950079 -9.63735265669946e-20)
(3.57350488859922 0.0033924291295009 0)
(3.64213415611054 0.00339242912950087 -1.61221347371188e-18)
(3.71076342362171 0.00339242912950085 -3.12805342088281e-18)
(3.77939269113273 0.00339242912950082 -3.12805342086971e-18)
(3.8480219586439 0.00339242912950084 0)
(3.91665122615501 0.00339242912950096 0)
(3.98528049366619 0.00339242912950095 -9.63735265669914e-20)
(4.05390976117742 0.00339242912950096 0)
(4.12253902868859 0.00339242912950096 -1.61221347371828e-18)
(4.19116829619982 0.0033924291295009 -2.81350024917463e-16)
(4.259797563711 0.00339242912950096 -1.32114431760029e-17)
(4.32842683122211 0.00339242912950086 2.7232315872548e-16)
(4.39705609873328 0.00339242912950097 0)
(4.46568536624445 0.00339242912950077 1.61221347371842e-18)
(4.53431463375563 0.00339242912950076 1.61221347371842e-18)
(4.6029439012668 0.00339242912950097 1.6122134737184e-18)
(4.67157316877797 0.00339242912950088 1.61221347371837e-18)
(4.74020243628908 0.00339242912950096 0)
(4.80883170380026 0.00339242912950087 0)
(4.87746097131149 0.00339242912950104 1.61221347371837e-18)
(4.94609023882266 0.00339242912950088 -1.61221347371838e-18)
(5.0147195063339 0.00339242912950088 -1.61221347371551e-18)
(5.08334877384507 0.00339242912950095 0)
(5.15197804135618 0.00339242912950096 -6.25610684174e-18)
(5.22060730886735 0.00339242912950096 0)
(5.28923657637838 0.00339242912950095 -4.74026689460765e-18)
(5.35786584388955 0.0033924291295008 1.61221347371187e-18)
(5.42649511140087 0.00339242912950104 0)
(5.49512437891204 0.00339242912950087 0)
(5.56375364642285 0.00339242912950098 -2.85897544762339e-16)
(5.63238291393403 0.00339242912950093 -5.6980576699396e-16)
(5.70101218144556 0.00339242912950107 -2.82729130908484e-16)
(5.76964144895673 0.00339242912950088 0)
(5.83827071646787 0.00339242912950096 -9.63735265669955e-20)
(5.90689998397935 0.00339242912950087 0)
(5.97552925149055 0.00339242912950095 0)
(6.04415851900142 0.00339242912950096 -1.61221347371827e-18)
(6.11278778651223 0.00339242912950087 0)
(6.1814170540234 0.00339242912950095 9.6373526566991e-20)
(6.25004632153494 0.00339242912950096 -6.25610684174001e-18)
(6.31867558904611 0.00339242912950087 -4.74026689458818e-18)
(6.38730485655722 0.00339242912950096 0)
(6.45593412406867 0.00339242912950096 0)
(6.5245633915799 0.00339242912950095 3.12805342089382e-18)
(6.5931926590908 0.00339242912950088 -1.61221347371838e-18)
(6.66182192660198 0.00339242912950096 0)
(6.73045119411332 0.00339242912950087 0)
(6.7990804616245 0.00339242912950103 0)
(6.86770972913549 0.00339242912950088 -1.61221347371837e-18)
(6.93633899664667 0.00339242912950087 -4.74026689458818e-18)
(7.00496826415807 0.00339242912950096 1.61221347370812e-18)
(7.07358992805807 0.00378423774987815 -1.51496892536747e-18)
(7.14207630531653 0.00698178262935388 -6.24770094607553e-18)
(7.21012619501211 0.0152150343329963 1.6202891253205e-18)
(7.27736703586117 0.0285499706127714 -1.64255385508839e-18)
(7.34348578392383 0.0466661142374742 -1.67593352772621e-18)
(7.40824463516184 0.0691847959810525 4.96565031830906e-18)
(7.47147643969062 0.0956998812077872 -3.4501109694622e-18)
(7.53308211266956 0.125805238767655 3.67321636036361e-18)
(7.59303559046286 0.159091909733934 1.81063124232344e-18)
(7.65144400913687 0.195036877608834 -7.63978530295879e-18)
(7.70854686593237 0.233033754382568 9.73830447638452e-20)
(7.76461510816819 0.272552349346204 0)
(7.81990474054277 0.313155777137271 -4.32017914933941e-18)
(7.87466306735143 0.354475065686653 -1.10168378383603e-17)
(7.92912482771694 0.396187858848603 -4.70283497898419e-18)
(7.98343901054036 0.438092438087315 7.07507482565678e-18)
(8.03760754560379 0.480182661981001 0)
(8.09155942920247 0.522547598582823 4.98848911486406e-18)
(8.14522226761736 0.565275145073538 -5.08904138751017e-18)
(8.19852586013604 0.608446987263221 0)
(8.25140175418846 0.652136531369752 -5.66061307184354e-18)
(8.30381738839968 0.696374476641183 5.83962154371373e-18)
(8.35596937735256 0.740931127042208 0)
(8.40832049647987 0.785260813728823 -7.92497771476877e-18)
(8.46142304269956 0.828690471959762 -1.64474656279395e-18)
(8.5158790348757 0.870410482136448 0)
(8.57239081326794 0.909278321470744 3.22047992921267e-18)
(8.63176349877795 0.943536385621154 -6.49436850991557e-18)
(8.69464027327192 0.9706117109042 -3.33108870629007e-18)
(8.76067456210815 0.98860836155798 6.21853407627954e-18)
(8.82853941686917 0.998102251265024 0)
(8.8970579797871 1.00133004754306 -3.12769539357378e-18)
(8.96568536624441 1.00169621456475 9.63735265669973e-20)
(0.034307136753914 1.00514237247296 0)
(0.102919549260538 1.00477746947017 -1.92727093172497e-19)
(0.171423592320117 1.00156081535578 0)
(0.239276228516666 0.992099698327414 -1.92215759545257e-19)
(0.30530464661806 0.974165177024096 -1.91803704645622e-19)
(0.368186426144006 0.947183338114284 -1.91387347228308e-19)
(0.427576150548057 0.913043568732213 1.0028634988029e-17)
(0.484114801603494 0.874309936732743 -3.03541376472146e-18)
(0.538604737731282 0.832733970080286 -6.94575484409932e-18)
(0.591745884765619 0.789454244669205 -3.10875052009315e-18)
(0.644138187961702 0.745277585130788 0)
(0.696332039877741 0.700874734390172 5.75190310066882e-18)
(0.748788621845064 0.65678948284608 -2.7418855997555e-18)
(0.801703876531604 0.613250741792714 0)
(0.855045355864041 0.570227918513743 3.82497742169328e-19)
(0.908744843456452 0.527647859585397 0)
(0.962732380787183 0.485429160737724 0)
(1.01693582389755 0.443484227877685 4.89003175627943e-18)
(1.07128441395276 0.401724300093456 -6.93451654438749e-18)
(1.12578007173111 0.360155495916398 -8.8475599584491e-18)
(1.18057126951551 0.318978836167389 4.28342864101175e-18)
(1.23589193596354 0.278515564554109 2.16542102936745e-18)
(1.29198852137104 0.239133379986633 -4.18479929218603e-18)
(1.34911614618652 0.201267660258204 0)
(1.40754482166198 0.165446766411309 -3.70184295203766e-18)
(1.46751321819288 0.132274994193473 0)
(1.52912810432776 0.102273555445488 0)
(1.59236350654631 0.0758499972215763 2.29952458101576e-16)
(1.65712068181732 0.0534090483656017 -1.00906514328239e-18)
(1.72323305719089 0.0353554411533296 -2.50398827135164e-16)
(1.79046364967897 0.0220665372446271 0)
(1.858500496339 0.0138617072750642 0)
(1.92697232807142 0.0106752009379516 -2.74852976460978e-16)
(1.99557901696409 0.0102847449459098 -2.71166652871392e-16)
(2.06419329047215 0.0102847449459099 0)
(2.13280756397998 0.0102847449459099 0)
(2.20142183748763 0.0102847449459098 1.66247698044903e-18)
(2.27003611099546 0.0102847449459097 0)
(2.33865038450346 0.0102847449459098 3.13219740231957e-18)
(2.40726465801129 0.0102847449459098 0)
(2.47587893151885 0.0102847449459098 0)
(2.54449320502674 0.0102847449459098 -1.92756558563469e-19)
(2.61310747853484 0.0102847449459097 -3.13219740232495e-18)
(2.6817217520426 0.0102847449459098 -1.66247698044153e-18)
(2.75033602555043 0.0102847449459098 0)
(2.81895029905862 0.0102847449459098 -4.79467438271355e-18)
(2.88756457256645 0.0102847449459097 2.82933494353812e-16)
(2.95617884607391 0.0102847449459099 2.72655292238998e-16)
(3.02479311958144 0.0102847449459098 1.92756558563468e-19)
(3.0934073930893 0.0102847449459097 0)
(3.16202166659743 0.0102847449459098 -2.37492585784814e-16)
(3.23063594010523 0.0102847449459097 -2.34461065665371e-16)
(3.29925021361305 0.0102847449459099 -2.76476342987662e-16)
(3.36786448712124 0.0102847449459099 -2.75830636002446e-16)
(3.43647876062907 0.0102847449459098 1.46972042189335e-18)
(3.50509303413654 0.0102847449459098 0)
(3.57370730764436 0.0102847449459097 0)
(3.64232158115234 0.0102847449459098 0)
(3.71093585466017 0.0102847449459098 -1.92756558563467e-19)
(3.77955012816785 0.0102847449459098 0)
(3.84816440167567 0.0102847449459099 0)
(3.91677867518344 0.0102847449459098 0)
(3.98539294869127 0.0102847449459097 -1.66247698043887e-18)
(4.05400722219915 0.0102847449459098 -4.60191782419763e-18)
(4.12262149570698 0.0102847449459099 1.66247698044128e-18)
(4.19123576921487 0.0102847449459098 2.76861856104339e-16)
(4.2598500427227 0.0102847449459098 1.15467378300622e-17)
(4.32846431623047 0.0102847449459098 -2.64310945605697e-16)
(4.3970785897383 0.0102847449459097 6.2643948046387e-18)
(4.46569286324613 0.0102847449459097 0)
(4.53430713675395 0.0102847449459097 0)
(4.60292141026178 0.0102847449459097 1.92756558563477e-19)
(4.67153568376961 0.0102847449459098 0)
(4.74014995727738 0.0102847449459098 4.79467438276818e-18)
(4.80876423078521 0.0102847449459098 -3.13219740231466e-18)
(4.87737850429309 0.0102847449459098 1.66247698044142e-18)
(4.94599277780092 0.0102847449459099 0)
(5.01460705130881 0.0102847449459097 0)
(5.08322132481664 0.0102847449459098 -1.92756558563466e-19)
(5.15183559832441 0.0102847449459098 0)
(5.22044987183224 0.0102847449459098 0)
(5.28906414533992 0.0102847449459098 6.26439480466402e-18)
(5.35767841884774 0.0102847449459098 1.92756558563467e-19)
(5.42629269235572 0.0102847449459097 1.92756558563472e-19)
(5.49490696586354 0.0102847449459099 0)
(5.56352123937102 0.0102847449459099 2.72259938283323e-16)
(5.63213551287884 0.0102847449459098 5.52698430470527e-16)
(5.70074978638703 0.0102847449459099 2.74105781463629e-16)
(5.76936405989486 0.0102847449459097 0)
(5.83797833340265 0.0102847449459098 3.13219740232215e-18)
(5.90659260691079 0.0102847449459099 0)
(5.97520688041865 0.0102847449459098 0)
(6.04382115392617 0.0102847449459097 1.92756558563474e-19)
(6.11243542743363 0.0102847449459099 0)
(6.18104970094146 0.0102847449459097 6.2643948045757e-18)
(6.24966397444966 0.0102847449459098 -1.66247698044153e-18)
(6.31827824795748 0.0102847449459098 3.13219740231959e-18)
(6.38689252146524 0.0102847449459097 -1.66247698044423e-18)
(6.45550679497334 0.0102847449459097 -1.66247698042709e-18)
(6.52412106848124 0.0102847449459098 3.32495396090615e-18)
(6.59273534198879 0.01028474494591 0)
(6.66134961549663 0.0102847449459098 3.1321974023193e-18)
(6.72996388900463 0.0102847449459098 4.79467438273864e-18)
(6.79857816251246 0.0102847449459097 -1.92756558563472e-19)
(6.86719243602011 0.0102847449459099 1.66247698044151e-18)
(6.93580670952793 0.0102847449459099 -1.92756558563473e-19)
(7.00442098303599 0.0102847449459098 -1.92756558563475e-19)
(7.07302767192867 0.0106752009379535 0)
(7.14149950366108 0.0138617072750713 1.92869686863886e-19)
(7.20953635032111 0.0220665372446407 -7.77265937387961e-18)
(7.27676694280919 0.035355441153349 -1.69186967755953e-18)
(7.34287931818276 0.0534090483656268 0)
(7.40763649345377 0.075849997221607 1.93281518307696e-19)
(7.47087189567232 0.102273555445525 -8.31965816761045e-18)
(7.53248678180719 0.132274994193512 -3.56579242943048e-18)
(7.59245517833809 0.16544676641135 0)
(7.65088385381355 0.201267660258247 2.21484907744498e-18)
(7.70801147862904 0.239133379986685 0)
(7.76410806403653 0.278515564554158 -1.97377155631743e-18)
(7.81942873048456 0.318978836167436 3.8776068771706e-19)
(7.87421992826896 0.360155495916454 4.23225354995477e-18)
(7.92871558604731 0.401724300093509 -2.7657885519827e-18)
(7.98306417610274 0.443484227877448 4.8952068983566e-18)
(8.03726761921258 0.485429160738152 0)
(8.0912551565437 0.527647859585367 7.63823403898621e-18)
(8.14495464413646 0.570227918513221 5.2195492565144e-18)
(8.19829612346932 0.613250741791812 0)
(8.25121137815619 0.656789482844712 8.42002572152211e-18)
(8.30366796012157 0.70087473439081 1.82691262332921e-18)
(8.35586181203796 0.745277585131092 0)
(8.40825411523458 0.789454244669053 4.85771485871947e-18)
(8.46139526226933 0.832733970079777 5.16906225871552e-18)
(8.51588519839734 0.874309936731909 4.83951591832038e-18)
(8.57242384945122 0.9130435687333 -3.60419704093836e-18)
(8.63181357385561 0.947183338114787 1.57351536655201e-18)
(8.69469535338214 0.974165177023675 -6.46812972272271e-18)
(8.7607237714833 0.992099698327634 1.48373360988824e-18)
(8.82857640767961 1.00156081535602 -6.46448771001648e-18)
(8.89708045073924 1.00477746947023 0)
(8.96569286324609 1.00514237247296 0)
(0.0342994028084476 1.00869744668744 0)
(0.102896368110784 1.00833384765365 -9.12716002251778e-18)
(0.171385432409764 1.00512868786498 -1.92525994435795e-19)
(0.239225463871439 0.99570137934616 0)
(0.305247825691145 0.97783095107334 1.47361740678828e-18)
(0.368134768434662 0.950945553186691 8.00763944061683e-18)
(0.42754207025151 0.916927817168223 -8.36238363895572e-18)
(0.484108443283156 0.878332633970813 0)
(0.538633396163843 0.836905263225673 6.17371399464358e-18)
(0.59181436399384 0.79378020922692 0)
(0.644249152885068 0.749761413310497 0)
(0.696486190849947 0.70551722318901 7.15566961474622e-18)
(0.748985014734351 0.661589491402488 -1.9107120844632e-19)
(0.801940874057827 0.618206319655349 0)
(0.855321437626667 0.575337225127862 1.91248960287771e-19)
(0.909058732703278 0.532909315186614 -2.53276791333022e-18)
(0.963083050611362 0.49084147600442 0)
(1.01732250504524 0.449046426157549 4.17571114373112e-18)
(1.07170658978102 0.407435721587683 -6.73111564375575e-18)
(1.12623721630795 0.366015457215974 -1.9152638455873e-19)
(1.18106232396316 0.324985934098271 0)
(1.23641500532381 0.284667248340831 1.91269601250538e-18)
(1.29254082969484 0.245425785451441 5.71762938691724e-18)
(1.34969400532753 0.207695368002287 5.50537953527672e-18)
(1.40814357782191 0.172002469537963 0)
(1.46812736459553 0.138949227417251 0)
(1.52975175506433 0.109054991794632 3.5287916893826e-16)
(1.59299086867245 0.0827258532366364 1.28227426941791e-16)
(1.65774631500176 0.0603650939677961 1.10805560621491e-17)
(1.72385211627185 0.0423759995891947 2.2312836665633e-16)
(1.79107213649488 0.0291345828751798 0)
(1.85909552789116 0.0209590728980685 0)
(1.92755235438478 0.0177839539856135 6.08229197678404e-18)
(1.99614359498314 0.0173948933748674 3.23554171877701e-18)
(2.06474240060027 0.0173948933748674 3.47558917493518e-16)
(2.13334120621716 0.0173948933748675 3.50258683306285e-16)
(2.20194001183388 0.0173948933748674 4.46779885580944e-18)
(2.27053881745078 0.0173948933748673 4.27504199456257e-18)
(2.33913762306785 0.0173948933748674 0)
(2.40773642868474 0.0173948933748675 -1.92756861203207e-19)
(2.47633523430137 0.0173948933748674 0)
(2.54493403991833 0.0173948933748673 7.51058371331152e-18)
(2.61353284553549 0.0173948933748674 8.93559771159156e-18)
(2.68213165115232 0.0173948933748674 6.08556971518566e-18)
(2.75073045676921 0.0173948933748674 1.61777085939804e-18)
(2.81932926238648 0.0173948933748673 0)
(2.88792806800337 0.0173948933748674 -4.46779885583346e-18)
(2.9565268736199 0.0173948933748673 0)
(3.0251256792365 0.0173948933748673 -6.27832657643972e-18)
(3.09372448485343 0.0173948933748673 -4.66055571694854e-18)
(3.16232329047063 0.0173948933748674 2.30088174136519e-16)
(3.23092209608749 0.0173948933748674 2.27881319120724e-16)
(3.29952090170438 0.0173948933748674 0)
(3.36811970732163 0.0173948933748673 1.61777085938319e-18)
(3.43671851293853 0.0173948933748674 0)
(3.50531731855506 0.0173948933748675 0)
(3.57391612417196 0.0173948933748673 -1.92756861203214e-19)
(3.642514929789 0.0173948933748674 4.46779885576898e-18)
(3.7111137354059 0.0173948933748674 0)
(3.77971254102264 0.0173948933748676 -1.61777085939816e-18)
(3.84831134663954 0.0173948933748674 -4.66055571699094e-18)
(3.91691015225637 0.0173948933748673 -4.46779885579546e-18)
(3.98550895787326 0.0173948933748674 1.23225713698903e-18)
(4.05410776349022 0.0173948933748673 -3.23554171879629e-18)
(4.12270656910711 0.0173948933748673 4.46779885578739e-18)
(4.19130537472407 0.0173948933748675 0)
(4.25990418034096 0.0173948933748673 1.92756861203215e-19)
(4.3285029859578 0.0173948933748674 -1.92756861203207e-19)
(4.3971017915747 0.0173948933748674 -1.9275686120321e-19)
(4.46570059719159 0.0173948933748674 -1.92756861203208e-19)
(4.53429940280849 0.0173948933748674 -4.66055571699092e-18)
(4.60289820842538 0.0173948933748674 0)
(4.67149701404228 0.0173948933748674 0)
(4.74009581965911 0.0173948933748673 0)
(4.80869462527601 0.0173948933748675 -1.61777085939564e-18)
(4.87729343089296 0.0173948933748673 0)
(4.94589223650986 0.0173948933748674 -4.46779885578699e-18)
(5.01449104212682 0.0173948933748674 -1.61777085939553e-18)
(5.08308984774371 0.0173948933748673 4.46779885579545e-18)
(5.15168865336054 0.0173948933748674 1.9275686120321e-19)
(5.22028745897744 0.0173948933748674 0)
(5.28888626459419 0.0173948933748674 -3.23554171880808e-18)
(5.35748507021108 0.0173948933748674 1.61777085939201e-18)
(5.42608387582812 0.0173948933748674 0)
(5.49468268144502 0.0173948933748674 0)
(5.56328148706156 0.0173948933748675 0)
(5.63188029267845 0.0173948933748675 -6.08556971512677e-18)
(5.70047909829571 0.0173948933748673 0)
(5.7690779039126 0.0173948933748674 6.08556971518654e-18)
(5.83767670952946 0.0173948933748674 1.8105277206025e-18)
(5.90627551514666 0.0173948933748673 0)
(5.97487432076359 0.0173948933748673 -1.92756861203205e-19)
(6.04347312638018 0.0173948933748674 -1.92756861203212e-19)
(6.11207193199671 0.0173948933748674 1.92756861203213e-19)
(6.1806707376136 0.0173948933748674 -2.85002799635937e-18)
(6.24926954323086 0.0173948933748674 -1.92756861203206e-19)
(6.31786834884776 0.0173948933748674 0)
(6.38646715446459 0.0173948933748674 0)
(6.45506596008175 0.0173948933748673 0)
(6.52366476569871 0.0173948933748674 0)
(6.59226357131534 0.0173948933748675 -4.66055571699056e-18)
(6.66086237693224 0.0173948933748675 1.92756861203209e-19)
(6.72946118254931 0.0173948933748672 1.61777085939089e-18)
(6.7980599881662 0.0173948933748674 -1.61777085940529e-18)
(6.86665879378292 0.0173948933748675 -3.50216188628722e-16)
(6.93525759939982 0.0173948933748675 -3.48400457686439e-16)
(7.00385640501694 0.0173948933748674 6.08556971514757e-18)
(7.07244764561531 0.0177839539856154 0)
(7.14090447210892 0.0209590728980756 -1.92870030654488e-19)
(7.2089278635052 0.0291345828751933 3.05779021196045e-18)
(7.27614788372823 0.0423759995892141 -6.00574200580503e-18)
(7.34225368499832 0.0603650939678213 -1.67750918710869e-18)
(7.40700913132763 0.0827258532366669 0)
(7.47024824493574 0.109054991794668 0)
(7.53187263540454 0.13894922741729 -1.63444564769118e-18)
(7.59185642217816 0.172002469538004 1.93576896657466e-19)
(7.65030599467255 0.207695368002336 -1.93666507642595e-19)
(7.70745917030523 0.245425785451486 -5.71965037855954e-18)
(7.76358499467626 0.284667248340884 -1.18638104418246e-17)
(7.8189376760369 0.324985934098317 8.31784160928001e-18)
(7.87376278369212 0.366015457216026 -6.15142999009261e-18)
(7.92829341021905 0.407435721587736 6.34815620111649e-18)
(7.98267749495506 0.449046426157318 6.35669759380121e-18)
(8.03691694938839 0.490841476004837 -1.94071508922784e-19)
(8.09094126729688 0.532909315186589 -4.68289505093507e-18)
(8.14467856237383 0.575337225127341 0)
(8.19805912594309 0.618206319654447 -2.34435353885645e-18)
(8.25101498526689 0.661589491401124 -8.1628943293394e-18)
(8.30351380914937 0.705517223189653 3.1748137353784e-18)
(8.35575084711459 0.749761413310794 1.94545210695808e-19)
(8.40818563600636 0.793780209226773 0)
(8.46136660383677 0.836905263225167 -6.36829488067171e-18)
(8.51589155671766 0.878332633969972 6.6403718912642e-18)
(8.57245792974778 0.916927817169315 -4.86780947909059e-18)
(8.63186523156495 0.950945553187191 1.7190606038516e-18)
(8.69475217430905 0.977830951072917 -2.94723481359771e-18)
(8.76077453612851 0.995701379346375 1.63178252283731e-18)
(8.82861456758999 1.00512868786522 6.09238400105386e-18)
(8.89710363188898 1.00833384765371 -3.23523181582044e-18)
(8.96570059719155 1.00869744668744 0)
(0.0342914244305542 1.01236487951909 0)
(0.102872454317551 1.01200262566698 -1.92727692530897e-19)
(0.171346066449958 1.00880932349686 -2.95891678189624e-18)
(0.239173094801659 0.999416892058987 1.92216002605401e-19)
(0.305189208928713 0.981612582564457 -4.47722706315719e-18)
(0.368081478074279 0.954826673731894 3.14722308997087e-18)
(0.427506912842395 0.920934827822317 4.52827506508421e-18)
(0.484101884007503 0.882482468937534 -1.514044319247e-18)
(0.538662960347964 0.841208390352854 5.98035046400404e-18)
(0.591885007511621 0.798242896118852 -4.37524638188644e-18)
(0.644363624861691 0.754386953156803 -4.22576371082352e-18)
(0.696645213777031 0.710306438249954 -1.90966984764391e-19)
(0.749187614643769 0.666541204788247 2.76416548101691e-18)
(0.802185361923756 0.623318519244072 4.91873481408671e-18)
(0.855606244996127 0.580608012168223 0)
(0.909382542471932 0.538337059966776 2.26854347845726e-18)
(0.963444803416544 0.496424848439802 -6.56410514180755e-18)
(1.01772140732043 0.45478441871859 0)
(1.07214210855449 0.4133276536155 0)
(1.12670880902558 0.372060623700528 2.17836486906161e-18)
(1.1815688982813 0.33118288751727 -1.92106155144866e-18)
(1.23695460639339 0.291013357295615 -1.66184270058867e-18)
(1.29311059383158 0.251917063625494 3.57012125599433e-18)
(1.35029012781911 0.214326224699998 -1.71658953745838e-18)
(1.40876125778392 0.178765366906194 1.840612042244e-18)
(1.46876092120709 0.145834400997743 3.16863794228132e-18)
(1.5303951163902 0.116050756611493 -3.44679362306605e-16)
(1.59363805868082 0.0898190218014925 -3.42412337898752e-16)
(1.65839172141909 0.067540986459704 -1.92326512296231e-19)
(1.72449074080529 0.0496184437976955 0)
(1.79169985462197 0.0364260150794828 1.58138693456345e-18)
(1.8597093654977 0.0282807517417985 5.90431014346997e-18)
(1.92815071251054 0.0251173801632631 0)
(1.99672601656936 0.0247297590381798 1.92757173550988e-19)
(2.06530886543069 0.0247297590381799 -3.41047674543521e-16)
(2.1338917142918 0.0247297590381799 -3.33638419191727e-16)
(2.20247456315274 0.0247297590381798 2.76335477534351e-18)
(2.27105741201385 0.0247297590381799 2.95611194886604e-18)
(2.33964026087513 0.0247297590381798 0)
(2.40822310973624 0.0247297590381798 0)
(2.47680595859708 0.0247297590381799 -3.85514347101957e-19)
(2.54538880745825 0.0247297590381799 0)
(2.61397165631962 0.0247297590381799 0)
(2.68255450518067 0.0247297590381798 3.14886912243132e-18)
(2.75113735404178 0.0247297590381799 -2.95611194888013e-18)
(2.81972020290325 0.0247297590381798 0)
(2.88830305176436 0.0247297590381798 0)
(2.9568859006251 0.0247297590381799 2.76335477532912e-18)
(3.02546874948591 0.0247297590381799 1.92757173550979e-19)
(3.09405159834705 0.0247297590381798 5.71946672415486e-18)
(3.16263444720846 0.0247297590381798 -2.9561119488832e-18)
(3.23121729606954 0.0247297590381798 1.92757173550981e-19)
(3.29980014493065 0.0247297590381798 0)
(3.36838299379211 0.0247297590381799 -5.91222389770307e-18)
(3.43696584265322 0.0247297590381799 2.76335477535812e-18)
(3.50554869151397 0.0247297590381797 2.95611194888013e-18)
(3.57413154037508 0.0247297590381799 0)
(3.64271438923634 0.0247297590381798 -3.14886912241923e-18)
(3.71129723809744 0.0247297590381799 0)
(3.7798800869584 0.0247297590381799 -3.14886912243128e-18)
(3.84846293581951 0.0247297590381798 -3.14886912243135e-18)
(3.91704578468056 0.0247297590381798 -3.85514347101961e-19)
(3.98562863354167 0.0247297590381798 0)
(4.05421148240283 0.0247297590381799 0)
(4.12279433126394 0.0247297590381799 0)
(4.19137718012511 0.0247297590381799 0)
(4.25996002898622 0.0247297590381799 -5.91222389776995e-18)
(4.32854287784727 0.0247297590381798 0)
(4.39712572670838 0.0247297590381798 0)
(4.46570857556949 0.02472975903818 -1.92757173550978e-19)
(4.53429142443059 0.0247297590381799 0)
(4.6028742732917 0.0247297590381799 0)
(4.67145712215281 0.0247297590381798 0)
(4.74003997101386 0.0247297590381799 0)
(4.80862281987497 0.0247297590381799 2.95611194887549e-18)
(4.87720566873613 0.02472975903818 0)
(4.94578851759724 0.0247297590381798 1.92757173550989e-19)
(5.01437136645842 0.0247297590381799 0)
(5.08295421531952 0.0247297590381798 0)
(5.15153706418057 0.0247297590381798 0)
(5.22011991304168 0.0247297590381799 5.91222389776034e-18)
(5.28870276190264 0.0247297590381798 1.92757173550987e-19)
(5.35728561076375 0.0247297590381799 1.92757173550979e-19)
(5.42586845962501 0.0247297590381798 0)
(5.49445130848611 0.0247297590381798 0)
(5.56303415734687 0.0247297590381799 1.92757173550976e-19)
(5.63161700620797 0.0247297590381798 0)
(5.70019985506944 0.0247297590381799 5.91222389776025e-18)
(5.76878270393055 0.0247297590381799 5.91222389776119e-18)
(5.83736555279162 0.0247297590381798 9.06109302019931e-18)
(5.90594840165303 0.0247297590381799 0)
(5.97453125051417 0.0247297590381798 -8.67557867316376e-18)
(6.04311409937498 0.0247297590381799 -2.95611194888014e-18)
(6.11169694823572 0.0247297590381798 0)
(6.18027979709683 0.02472975903818 -2.9561119488506e-18)
(6.24886264595831 0.0247297590381799 -1.9275717355099e-19)
(6.31744549481941 0.0247297590381799 -1.92757173550984e-19)
(6.38602834368046 0.0247297590381798 0)
(6.45461119254184 0.0247297590381797 0)
(6.52319404140301 0.0247297590381798 -3.14886912245288e-18)
(6.59177689026385 0.0247297590381799 0)
(6.66035973912496 0.0247297590381799 0)
(6.72894258798624 0.0247297590381799 -2.57059760176446e-18)
(6.79752543684735 0.0247297590381798 3.14886912244523e-18)
(6.86610828570828 0.0247297590381798 3.38091562594647e-16)
(6.93469113456939 0.0247297590381799 3.35981834535815e-16)
(7.00327398343073 0.0247297590381798 2.9561119488616e-18)
(7.07184928748954 0.0251173801632647 -5.90912255334607e-18)
(7.14029063450238 0.0282807517418056 0)
(7.20830014537811 0.0364260150794962 -5.94135017072179e-18)
(7.27550925919479 0.0496184437977146 4.22681699576536e-18)
(7.34160827858099 0.0675409864597289 -1.82545614896524e-18)
(7.40636194131926 0.0898190218015232 1.93281926154572e-19)
(7.46960488360987 0.116050756611528 0)
(7.53123907879298 0.145834400997782 1.58431897114093e-18)
(7.59123874221615 0.178765366906234 -3.49098599701844e-18)
(7.64970987218097 0.214326224700046 1.52292347082151e-18)
(7.70688940616849 0.251917063625543 -3.57012125599406e-18)
(7.76304539360667 0.29101335729566 -3.90080044461749e-18)
(7.81843110171877 0.331182887517325 2.11494007370161e-18)
(7.87329119097449 0.372060623700579 -5.96051559177627e-18)
(7.92785789144558 0.413327653615553 -6.34496576061494e-18)
(7.98227859267986 0.454784418718355 -1.94019850133893e-19)
(8.03655519658321 0.496424848440221 2.38210527521542e-18)
(8.09061745752823 0.538337059966751 6.80563043511883e-18)
(8.14439375500437 0.580608012167708 -4.7169764508987e-18)
(8.19781463807715 0.623318519243169 7.57237720658023e-18)
(8.25081238535747 0.666541204786889 0)
(8.30335478622229 0.710306438250591 -2.50410902287786e-18)
(8.35563637513797 0.754386953157099 7.43202517109146e-18)
(8.40811499248859 0.798242896118713 0)