/*--------------------------------*- C++ -*----------------------------------*\
| =========                 |                                                 |
| \\      /  F ield         | OpenFOAM: The Open Source CFD Toolbox           |
|  \\    /   O peration     | Version:  3.0.1                                 |
|   \\  /    A nd           | Web:      www.OpenFOAM.org                      |
|    \\/     M anipulation  |                                                 |
\*---------------------------------------------------------------------------*/
FoamFile
{
    version     2.0;
    format      ascii;
    class       volTensorField;
    location    "30000";
    object      grad(U);
}
// * * * * * * * * * * * * * * * * * * * * * * * * * * * * * * * * * * * * * //

dimensions      [0 0 -1 0 0 0 0];

internalField   nonuniform List<tensor> 
21000
(
(0.165789288989557 -0.00546365589646663 0 39.281082084832 -0.11767958283209 0 0 0 0)
(0.443729299563284 -0.0392476975904271 1.89965640948872e-20 44.0524216336867 -0.545448734397942 1.64963479033675e-22 0 0 0)
(2.51030518023624 -0.215330983360025 4.11519876006962e-21 35.9475296690869 -2.49406571425217 3.88005472426747e-19 -4.26458183952931e-21 4.71192417453571e-22 9.00185982554625e-41)
(1.32920340843552 -0.207431255969935 -5.8242500426635e-16 9.83709537685611 -1.524043950986 -2.10579070914348e-15 -1.98277326192686e-17 3.07213086711e-18 4.23658907716263e-33)
(-3.73349433942251 1.33901655495883 -1.12738794229895e-15 -10.0151855795355 3.51982567005783 -3.23043025603667e-15 0 0 0)
(-6.08269115000483 3.08664507429585 1.75278824139586e-16 -11.9668923460773 5.96042456300595 2.72126139000814e-18 0 0 0)
(-5.25037214591087 3.30180936063663 -5.40818847393447e-15 -8.32698500703092 5.17604903269848 -8.43689963373013e-15 7.82197488159137e-17 -4.86173844198768e-17 7.92275208341181e-32)
(-4.49403499900597 3.23099490517114 -4.04186378376955e-16 -6.19571817072066 4.42714221378826 1.12729600787939e-18 1.15038114509457e-21 -7.44154357991993e-22 1.16808069941072e-40)
(-3.72695955590897 2.91183358561512 -3.98676410329933e-15 -4.72353268570443 3.67594756926625 -5.52516361993603e-15 -4.7751057891766e-17 3.71611167001958e-17 -5.58285134116691e-32)
(-3.06349516063177 2.51860971623998 -8.32199613646417e-15 -3.69305869678014 3.02899810402379 -1.04602863075803e-14 3.80611490708539e-17 -3.12179197499622e-17 1.07704260393943e-31)
(-2.5443353453482 2.13938955246754 5.07572058270209e-16 -2.99934084351656 2.51930272713283 -1.80743686508562e-17 -1.50010036669437e-21 1.27434798553409e-21 2.14859035633128e-35)
(-2.08683222914104 1.75323733344443 2.50615434435609e-15 -2.46641464542255 2.07198040641971 2.87935441836754e-15 2.56114084166425e-17 -2.1515509648177e-17 -2.99856986434211e-32)
(-1.75314360145056 1.44944359593281 5.30691720002357e-15 -2.11158159138625 1.74660158292661 8.07791756080778e-15 2.89293517131136e-21 -2.3954460129841e-21 -2.60471301033138e-35)
(-1.55778199920427 1.26865664343891 -1.06248147139495e-14 -1.91113786349746 1.55713896109391 -1.36369177438519e-14 -4.71337214281418e-21 3.83941705462141e-21 6.52502674114281e-37)
(-1.46902493447392 1.18192081820842 -1.57065725729222e-15 -1.82954447202363 1.47252052649067 -2.61317038231632e-15 1.85407747508163e-17 -1.49225112307621e-17 2.61767201996621e-32)
(-1.4822441073274 1.18205765725475 -6.9141910800216e-15 -1.8669625249317 1.48942341903703 -8.1182423218959e-15 0 0 0)
(-1.59750710639282 1.26435026643348 6.88014383572865e-15 -2.02879566625227 1.60647616372886 8.09331182667086e-15 0 0 0)
(-1.80448668604824 1.41902371263166 3.80066976983926e-15 -2.30563059528349 1.8143011497224 5.65670351101488e-15 -1.216514607798e-20 9.57630209636086e-21 -9.02759093965338e-37)
(-2.07682303477372 1.62214332461052 -4.85985256860121e-15 -2.66667133399942 2.08484999430867 -5.56330831909306e-15 2.58758621832739e-20 -2.0214385360175e-20 5.49831239182211e-35)
(-2.34664619559109 1.81063871359246 5.35570448160238e-16 -3.04309228760467 2.35176446761883 -5.47037052004506e-17 -1.36501655758637e-20 1.05952248610868e-20 -5.2429129044564e-35)
(-2.57576755870595 1.94052911403247 -6.09073364420678e-16 -3.41309936349549 2.57789091176337 3.68150798132763e-17 -1.78029579681391e-20 1.30889314283676e-20 -5.47767652317067e-35)
(-2.74316512481319 1.99146173168779 1.55461247833276e-15 -3.76361579042185 2.74229894916274 2.19739048161801e-15 -3.66640704534973e-17 2.67093225247316e-17 2.14779691537682e-32)
(-2.82124075659927 1.94381112875725 5.69274920790692e-16 -4.0700002578767 2.81839237749894 -6.93635523271243e-17 -3.89603592242915e-20 2.65427211188192e-20 -5.20165559945783e-35)
(-2.78602265553978 1.78850708053158 4.87605999092438e-18 -4.30544238026027 2.78303673089309 5.63465816685457e-18 1.95802685137134e-20 -1.29581805922503e-20 4.99699266087051e-38)
(-2.63231090741718 1.53880165572245 5.0514008377573e-15 -4.45873415041466 2.63148937694413 8.02333537432413e-15 0 0 0)
(-2.39818732366671 1.244068962429 4.09429389117966e-15 -4.570520015635 2.40203195072874 7.14738490583054e-15 0 0 0)
(-2.11864985214591 0.951557451995162 1.1505559855576e-15 -4.65138826823753 2.12598361022506 3.22539161167414e-15 3.96945985808932e-20 -1.68420602026134e-20 -5.35218101301801e-35)
(-1.78688259051826 0.672848392069177 1.83963174489551e-13 -4.65837651831273 1.79802289836662 4.8001550852359e-13 -3.84246624394722e-20 1.63032377503923e-20 5.18095045906726e-35)
(-1.41887172242962 0.426917953722509 -2.47304071966772e-15 -4.5831396569045 1.43273123768566 -7.94822115430457e-15 0 0 0)
(-1.04203058424203 0.23110042400857 -1.29197752033368e-13 -4.45648244321997 1.05804898120926 -5.46067824944941e-13 0 0 0)
(-0.673141274705435 0.0923543721787936 -8.38608578511104e-17 -4.31561657175289 0.692461407233404 1.10035984868251e-17 -2.88684571773132e-20 3.72474470884769e-21 -1.34289659913789e-35)
(-0.370927337547705 0.0164988432748912 4.82655814337592e-14 -4.27872259663497 0.372861493884342 -4.84320940022969e-15 1.28096817043675e-20 -2.94529081835311e-21 3.77941711854232e-33)
(-0.157685208451528 -0.00439035652042303 4.71530702613014e-14 -5.52957272458562 0.179543079628782 -1.06941114292594e-13 3.17971168517351e-15 -1.03097376987997e-16 6.39779923650446e-29)
(-0.111259688113233 -0.00118752934665736 -4.83777474023685e-14 -7.71728194914153 0.116112417672874 -5.79216671981873e-14 4.46977842265866e-15 -6.70662111980503e-17 3.12311650331536e-29)
(-0.0870137479533215 0.000173729184161219 -4.82978545907699e-14 -9.32050904187151 0.097441206816397 3.77603644768734e-15 -3.87369003265729e-20 1.745621086185e-22 -5.36101963267059e-40)
(-0.0718497956559792 0.000111593373907415 1.08937415980124e-20 -10.6414690988633 0.0805542334941441 6.42557282342696e-18 3.87369003265726e-20 -1.74562108618498e-22 5.36101963267055e-40)
(-0.0587470787799204 0.000111803854564426 -6.26881472046068e-19 -11.6826383466801 0.0689873614990935 -6.3400653918642e-18 -4.89264914248654e-20 1.91992283885127e-22 -4.85974596473828e-38)
(-0.0493831760645111 8.81792135107959e-05 6.20307778784501e-19 -12.5473909491908 0.0597709149601192 -5.6579964378234e-20 -3.85303533024568e-21 6.88002781770323e-24 4.83984218463524e-38)
(-0.0418403401238453 8.25503430587364e-05 1.22738391602283e-18 -13.2626874110647 0.0530909686272494 -9.6937711169157e-20 -3.26451884172201e-21 6.44084511522117e-24 9.57644681669193e-38)
(-0.0359817098201177 6.82461450652247e-05 3.10935678573107e-21 -13.8681479875663 0.0477026542219872 6.07035573712218e-18 1.14895500724704e-19 -4.15951098895987e-22 -1.91373462819217e-37)
(-0.0310453478396835 5.63007830666225e-05 -1.83642605016711e-18 -14.3797687945447 0.0433484772963258 6.57223876397925e-18 2.4222585827571e-21 -4.39276943209996e-24 1.4328390793322e-37)
(-0.0268136385830285 4.12129857765089e-05 -1.73085179712296e-21 -14.8129761877302 0.0395442238213702 -1.26642733535615e-17 -6.12737137102448e-20 2.15030711508861e-22 -4.74758754787646e-38)
(-0.0229964627000171 2.62514549273204e-05 1.22248768515921e-18 -15.1755731903763 0.0361264772241076 6.25497075021477e-18 0 0 0)
(-0.0194740902995649 1.03088799509731e-05 2.28179859163159e-21 -15.4739799917435 0.0329096775232014 6.28960176146148e-18 6.66794907238008e-20 -2.21098837867276e-22 -4.79495595516792e-38)
(-0.0161363330687316 -5.51466120606153e-06 -1.8381194751103e-18 -15.712002316235 0.0298180268678956 1.24741528120162e-19 1.25900896559031e-21 4.3027172722096e-25 1.43416034431663e-37)
(-0.0129336457736439 -2.12782784614187e-05 -4.57033927539468e-14 -15.8926928257105 0.0267872716184274 2.37363616982021e-15 -1.36886124307836e-19 4.39676932077394e-22 -3.56611765185936e-33)
(-0.00983151454912914 -3.65989937886772e-05 -4.6295084053238e-14 -16.0182736956924 0.0237953358519758 2.2498529671739e-15 -9.21251454018002e-15 1.36400652068713e-17 2.6852300917229e-30)
(-0.00681322607027746 -5.15984180720553e-05 4.57040074586645e-14 -16.0907997952857 0.0208256864280231 -1.33513278344321e-14 -9.30609945157168e-15 1.20876561625507e-17 -8.99017433280614e-30)
(-0.00385297632934921 -6.62537130048376e-05 4.62969321114851e-14 -16.1121649017671 0.0178490829389365 -2.20944401846289e-15 7.02463011897704e-20 -2.12126918232089e-22 3.61213989560132e-33)
(-0.000935313780191429 -8.03597912924701e-05 -1.23905436467348e-18 -16.0836120343633 0.0148238939880473 6.44707996522693e-18 7.06198990902615e-20 -2.00687657796409e-22 -1.12015809407379e-41)
(0.00191486576614987 -9.33043994009943e-05 -3.0829374762028e-19 -16.0059007279438 0.0117845077231249 -4.03003887853785e-13 -7.06198990910492e-20 2.00687657798647e-22 1.12015809408628e-41)
(0.00467467286444838 -0.000104640139975418 4.68997003932535e-14 -15.8811765504861 0.00878046087356987 -4.09287046188452e-13 3.50528809729744e-20 -9.26216918838612e-23 -1.82962123622374e-33)
(0.00733544432942946 -0.000114404303394304 4.75056099499168e-14 -15.711441157933 0.00582383472688924 7.12780372851073e-15 9.04197388808302e-15 -3.30547988625893e-18 -3.05164283380713e-30)
(0.0098798338615899 -0.000122767153411128 -4.68987606453291e-14 -15.4989067083956 0.00293473949592442 1.81139381639366e-14 8.95734605803114e-15 -1.73553085767277e-18 -1.13984837114911e-29)
(0.0122952614907439 -0.00012976218712961 -4.75059238677908e-14 -15.2459516116206 0.000130740046394291 1.65364683864789e-15 3.43812850941691e-20 -8.33692492997594e-23 -1.85329541027541e-33)
(0.0145702687637839 -0.000135388634273567 -3.17679880321214e-19 -14.9551008374586 -0.00257164262653249 1.03665298753297e-20 0 0 0)
(0.0166948759309283 -0.000139668014191576 -4.72735718216531e-30 -14.6290045455233 -0.00515728960240549 1.33694703890436e-31 0 0 0)
(0.0186609020827701 -0.000142644643174301 4.7617665900439e-30 -14.270411589236 -0.00761288950243074 -1.21422197795709e-30 -8.0089213612588e-31 -4.27744615874137e-34 -6.06013593288769e-62)
(0.0204621209295483 -0.000144381963644776 4.7273571821657e-30 -13.8821409475645 -0.00992716895745243 8.49180417220166e-31 7.79100001498762e-31 5.57616441642094e-34 -5.40116634893209e-62)
(0.0220943247375968 -0.000144959757245248 -4.76176659004406e-30 -13.4670526431831 -0.0120910223945053 1.13949709631526e-31 0 0 0)
(0.0235553134638186 -0.00014447052044754 -1.6780868394797e-19 -13.0280190287564 -0.0140975746699846 3.37982814522057e-18 0 0 0)
(0.0248448095623347 -0.000143015880366375 1.6839941569604e-19 -12.5678974963954 -0.0159421357810437 -6.83854375932764e-18 -1.42027840352928e-20 1.97544066919707e-23 1.15227010300296e-41)
(0.0259643271882008 -0.000140703581196041 -2.71791537190586e-21 -12.0895053402782 -0.017622123762426 3.45324482285919e-18 1.42027840352411e-20 -1.97544066918988e-23 -1.15227010299877e-41)
(0.0269170048089872 -0.000137644308765836 2.78864191071431e-21 -11.5955970642459 -0.0191369236443187 -1.75144797114052e-18 -1.31712908389329e-20 1.43250057319692e-23 1.29022794335899e-41)
(0.0277074068335906 -0.000133948875781921 -5.16884555374404e-14 -11.0888446321069 -0.0204877193703875 5.63990763455371e-16 1.31712908389312e-20 -1.43250057319672e-23 -1.29022794335882e-41)
(0.028341313697329 -0.000129726035541469 -2.62633659342372e-15 -10.5718207639624 -0.021677290688339 8.6990110570317e-15 -6.09371847568244e-15 -1.25071306788916e-17 5.3416756456258e-30)
(0.0288255073648798 -0.000125080486818821 1.01748829059175e-13 -10.046985294763 -0.0227098149474151 -1.82829742069773e-15 -2.88390329141194e-16 -6.36627824326086e-19 -1.32360126062823e-31)
(0.0291675566616862 -0.000120111340139663 2.62612115811284e-15 -9.51667455430102 -0.023590640461448 -1.44390841191876e-14 5.22224671409935e-15 1.29414364093201e-17 7.80189491012114e-30)
(0.0293756102405724 -0.000114910918606145 -5.00602029950447e-14 -8.98309368248824 -0.0243260834002978 2.17354064214868e-16 -2.73670337461289e-21 1.09978699722874e-24 2.44115981980186e-34)
(0.0294582017650204 -0.000109563967392441 4.42473392066814e-20 -8.4483116587749 -0.0249232077579143 -9.6258611766244e-23 0 0 0)
(0.0294240738152742 -0.000104147346041062 -4.55145460320268e-20 -7.91425885842473 -0.0253896419559676 -9.90153779812402e-23 0 0 0)
(0.0292820137741019 -9.87294477606658e-05 4.57180146959758e-20 -7.38272679660637 -0.0257333880799719 -4.67360849152689e-19 -2.16352564655032e-21 -9.84173130633471e-25 9.92205283761554e-43)
(0.0290407086612263 -9.33705208022538e-05 4.55145460319879e-20 -6.85537004833214 -0.025962653006764 4.69847979552123e-19 2.16352564696463e-21 9.84173132077871e-25 -9.92205257522189e-43)
(0.0287086293730164 -8.8123079763967e-05 -4.57180146960132e-20 -6.33370980132315 -0.0260857088016965 -2.98374051709897e-22 0 0 0)
(0.0282939195902686 -8.3031725266278e-05 0 -5.81913884868937 -0.0261107614377493 0 0 0 0)
(0.0278043083508803 -7.81343304678745e-05 0 -5.31292810264618 -0.0260458199399628 2.1372569609493e-18 0 0 0)
(0.0272470311199137 -7.3461686067485e-05 0 -4.81623391941115 -0.0258986299408918 -2.16921588605663e-18 0 0 0)
(0.026628791422495 -6.904005957864e-05 0 -4.33010672867147 -0.0256765409457685 0 0 0 0)
(0.0259556752773543 -6.48882609655817e-05 0 -3.85549947675395 -0.0253865336183701 -4.511063884417e-18 0 0 0)
(0.025233148918255 -6.10242823499309e-05 0 -3.39327870901635 -0.0250349644351337 4.57997983526348e-18 0 0 0)
(0.0244659546661883 -5.74533905537504e-05 0 -2.94423309294515 -0.0246278371840729 4.67579690112421e-18 0 0 0)
(0.0236582237544239 -5.4149572723335e-05 0 -2.50908763493598 -0.0241700312662668 -4.74737992499033e-18 0 0 0)
(0.0228132151795515 -5.10773634442626e-05 0 -2.08850905767819 -0.0236661508404981 -4.84491741241421e-18 0 0 0)
(0.0219335473013541 -4.8563532443183e-05 0 -1.68312841734656 -0.0231198546415312 4.91856609922978e-18 0 0 0)
(0.0210209546740826 -4.67119047398812e-05 -6.01585465761556e-14 -1.29353928876773 -0.0225601186063585 -1.9630936957907e-15 0 0 0)
(0.0200764302218898 -4.50162559434904e-05 -1.2059545603631e-13 -0.920329926988366 -0.0219901868240861 1.37462209849589e-13 -5.32927763473495e-16 -1.27039837370017e-17 7.81575311457071e-29)
(0.019099043125768 -4.44938259487024e-05 -2.39675343983831e-16 -0.564074349878297 -0.0213860075791268 3.11675787433594e-13 -6.51004655869351e-16 -2.46683546587721e-17 3.59778925410914e-28)
(0.0180887660176071 -4.52629005204871e-05 1.20595456035681e-13 -0.225401922655154 -0.0207506428289659 1.68378383753656e-13 -1.28801325700028e-16 -1.19416659917056e-17 9.8481253501208e-29)
(0.0170418662280375 -4.4822796554095e-05 6.03990419142582e-14 0.095096792233905 -0.0200849153953256 2.36510914014287e-15 0 0 0)
(0.0159561426727272 -4.33490986720185e-05 -8.22230114570426e-19 0.396658168194035 -0.0193720035737539 1.87748087343799e-17 1.60740305884384e-21 1.00946163874375e-22 1.74410901738016e-40)
(0.0148229352568223 -4.17010302897656e-05 -1.64664442682985e-18 0.678592329724247 -0.0186148534333762 1.86626383434158e-18 -1.6074030588264e-21 -1.0094616387328e-22 -1.74410901736124e-40)
(0.0136404266418995 -4.01459730211566e-05 1.6481378346644e-18 0.939834137842031 -0.0177901100952623 -1.87652019052719e-17 6.13400618718706e-22 -1.07332132145487e-22 -5.78903883198532e-41)
(0.0123892362602769 -3.88083277488187e-05 8.2664968348602e-19 1.17957943482845 -0.0169062942142818 8.52391105963917e-18 -6.13400618713168e-22 1.07332132144518e-22 5.78903883193305e-41)
(0.0110696426229968 -3.89155739887971e-05 -8.25907720083346e-19 1.39613188467326 -0.0159272712107979 -4.13248985216429e-20 0 0 0)
(0.00964211487153768 -3.88659030074138e-05 8.28876278848934e-19 1.5886166166135 -0.0148958080438003 4.50798179752285e-20 0 0 0)
(0.00812204468434429 -4.0601924107789e-05 -1.6578808475946e-18 1.75405091762475 -0.0137097659888413 8.42106938353408e-18 -3.82975558378494e-21 1.19596739915026e-22 6.46816212894961e-38)
(0.00642085758144782 -4.0733164156693e-05 3.91849550640197e-22 1.89185943379424 -0.0124827264101178 -1.70291770040197e-17 8.16048727083727e-21 -2.42371613217069e-22 -1.29332669207987e-37)
(0.00460701567147402 -4.50179814358668e-05 8.25730579624036e-19 1.996256392245 -0.0109653306861499 8.56555915296882e-18 -4.33073168706042e-21 1.22774873302273e-22 6.46510479186124e-38)
(0.00247194897522515 -4.42775534287133e-05 3.04937272645689e-21 2.06841292357558 -0.0094861879589268 -8.54647912267175e-18 4.88305543486806e-21 -1.29742000125877e-22 1.30480729932694e-41)
(0.00025334167509997 -5.29176161740629e-05 -3.41476313478407e-21 2.09606594143036 -0.00744820176431402 8.54816031713019e-18 -4.88305543495483e-21 1.29742000128182e-22 -1.30480729935013e-41)
(-0.00255523907335359 -4.70340521950388e-05 8.41350173803353e-19 2.08759761530921 -0.00574408596377589 -8.52500368604449e-18 4.70345394491688e-21 -1.3754055299946e-22 6.53914825736903e-38)
(-0.00539709388046685 -6.79370821112975e-05 -8.4322268517907e-19 2.015302318337 -0.00262211813397967 1.71326587822915e-17 -8.98580914610464e-21 2.80381777168102e-22 -6.49920003658581e-38)
(-0.00953566583111896 -4.92167956109801e-05 -8.32090421913128e-19 1.90205859614976 -0.000604249850374348 -1.7301869442126e-17 7.82070687172317e-21 -2.89522502124278e-22 -6.57213539639087e-38)
(-0.0131890372691118 -9.84761721300114e-05 1.67878771628741e-18 1.6812731110501 0.00469911184234932 8.76583749473052e-18 -3.53835167059282e-21 1.46681277957844e-22 6.53218717567489e-38)
(-0.0195418066443296 -4.31177502237362e-05 -1.69118538603883e-18 1.42739650002018 0.0063475709036145 -1.26938287196178e-19 0 0 0)
(-0.0233732509875744 -0.000149904099925189 -1.7287947093678e-21 0.975453902916848 0.015700636367078 -8.72795130661941e-18 -8.39071513839666e-22 -1.69424897708656e-22 -6.64240642646669e-38)
(-0.0340714292475871 -0.00019154018160477 1.69366572819898e-18 0.554218319712403 0.0148858473475232 2.35292098825081e-17 -2.65836325455101e-21 -1.4944585296028e-23 1.32145285265818e-37)
(-0.0342064768514231 -0.00358190380063451 6.61224346996587e-19 -0.29111251082903 0.0305835905538995 -2.06468025518895e-16 3.90396843115342e-20 -3.6250386194666e-21 2.5406699427996e-35)
(0.0525932620640732 -4.37207237963768e-05 -2.13179050952675e-16 -0.764337476429288 -0.0641945537038768 -3.55824853144225e-17 -1.44323309137742e-20 -1.69928778212276e-21 -3.37281996115704e-35)
(0.110397732403987 0.0127830133553447 3.53950810079742e-16 -0.631575821571377 -0.101057394110463 -2.18437341409379e-15 1.4527811767527e-20 1.71052986416606e-21 3.39513373232607e-35)
(0.118211520499024 0.024464434482084 1.21281911193847e-15 -0.427494361253914 -0.102705155448054 -6.03007620908549e-15 0 0 0)
(0.0355896233601872 0.00796653368079572 -4.62312641624967e-16 -0.030646675467649 -0.00785032708226542 1.52419220367095e-15 -1.35896566885733e-19 -3.44108838887268e-20 6.3057096522695e-33)
(-0.136041686286304 -0.0544941502057795 -2.12805029981026e-15 0.438067233507893 0.171989957226808 5.58685183049144e-15 0 0 0)
(-0.423819578102122 -0.193421013086373 3.92569561101312e-15 1.01759162189589 0.466737908578192 -9.53742002218303e-15 1.82927163181035e-21 1.61488697785542e-21 -6.77421987302951e-35)
(-0.832728919234977 -0.432952880783189 1.74714731087715e-15 1.68184605526188 0.880782663157364 -4.04550029594159e-15 -1.8979543578169e-21 -1.67552031295056e-21 7.02856804054958e-35)
(-1.41217424697693 -0.819264240611506 8.22419008092469e-16 2.50033707304578 1.45918749586572 2.21941242591876e-15 2.28618546219344e-17 1.33372702465839e-17 1.85848548899612e-32)
(-2.17787435650931 -1.37849961139546 -8.97430442251914e-15 3.48970987140193 2.21828442068774 1.52087657048609e-14 -3.27248789600255e-17 -2.07969562859351e-17 -1.42194933718558e-31)
(-3.099756192524 -2.094920269071 -8.648820714618e-16 4.61465284746102 3.12785612052315 -8.82404731454634e-17 0 0 0)
(-4.16571887983019 -2.95277349220919 -5.26459629288574e-15 5.8797643014189 4.17543583779416 7.25418005617456e-15 0 0 0)
(-5.35430692637193 -3.92372570190845 -7.51049402132391e-16 7.28278986118387 5.34214356005849 -8.0663882013596e-17 0 0 0)
(-6.64926710977027 -4.97461348394328 -6.86677456564293e-16 8.83294310038623 6.61039342527431 -4.34072386571708e-17 0 0 0)
(-7.96269898981258 -6.02019579120188 -1.0860655370075e-15 10.4493267462099 7.90103483712692 1.45254555635112e-15 -5.72383731890063e-20 -4.26453750282371e-20 6.6584621401734e-35)
(-9.22262971998621 -7.02124566283066 7.18468667071466e-15 12.0077528831089 9.14417613951112 -8.35219639966618e-15 5.90670911237554e-20 4.40078589320113e-20 -6.87119441146587e-35)
(-10.5027215949972 -8.06978904005124 3.83898380511533e-18 13.5380261692457 10.4072029056254 -4.03295659772202e-18 0 0 0)
(-11.9166546027445 -9.26622776538061 -3.2104482643072e-18 15.1638765488678 11.7991392181045 4.07167401492272e-18 0 0 0)
(-13.5084397632774 -10.6627101564215 6.62590149164694e-15 16.9213557028348 13.3669557618993 -8.27382314837325e-15 0 0 0)
(-15.4397061371148 -12.3954612578658 6.68399183099046e-15 18.9882730616083 15.256626865741 -8.19256212169995e-15 0 0 0)
(-17.8299717847287 -14.5912571175956 -7.25324280474656e-15 21.4901030618566 17.5967168241032 8.04975359763831e-15 2.21212494182904e-16 1.81129711831953e-16 8.3048023219835e-32)
(-21.2571012997241 -17.6833903997647 6.01692550857822e-15 25.1362645406965 20.903902876414 -6.42763437798611e-15 0 0 0)
(-25.8699173183511 -21.5140082273214 -4.86492496455548e-15 30.5301446092373 25.3506136019597 6.32233114665265e-15 0 0 0)
(-31.4547526006827 -25.5447097926189 -5.17322678934667e-16 37.9505200442103 30.7321694944119 -1.04865234895336e-17 0 0 0)
(-37.8985845599016 -29.2661575363168 5.55463461298189e-15 48.0523165256554 36.9392291013899 -6.97435859568276e-15 -4.8579786250686e-16 -3.73446224137694e-16 7.04856114825958e-32)
(-45.0330437064924 -31.9762121512641 3.54900743949273e-16 62.1059504985504 43.7920270500122 -1.93746141114012e-18 -1.25227405639022e-20 -7.7095437143505e-21 -1.55642304022318e-36)
(-51.4476970023528 -31.9946652132261 -3.8844379117931e-15 81.2125356175171 49.9549333075406 5.58209068089638e-15 1.24786750563435e-20 7.68241507145602e-21 1.55094623816907e-36)
(-53.0974639248559 -26.7410600322025 9.61822500759364e-16 104.157420955039 51.5487613961624 -2.55412545572637e-15 4.62988396242664e-16 2.29107409936099e-16 -1.13749275503584e-32)
(-41.689341554264 -14.8080816724085 3.58885759740008e-16 118.183461033763 40.7066139834497 -5.8580641284113e-18 3.22347508358643e-20 8.38118108645813e-21 5.90348337254903e-37)
(-21.8198865575562 -4.72873651635952 -3.24444825119853e-17 106.506731844025 21.4659958077877 6.64486530753723e-18 -2.14535116423448e-16 -4.32309472168381e-17 -1.28248874201902e-35)
(-7.62402394679549 -0.875328474453436 -6.33847179439532e-18 80.0326985376151 7.37345749432307 -6.48822165448045e-16 7.00730652661269e-21 3.96159843263791e-22 -1.55106223501798e-37)
(-1.11851266785404 -0.0887848278590652 3.17983425834056e-17 50.7084402642365 1.10873590737619 -2.92390439348675e-19 -6.99838947315607e-21 -3.95655715395782e-22 1.54908845168031e-37)
(-0.067307334910032 -0.0068110511896781 -8.16021925961747e-21 38.0099315302621 -0.0476954840299562 3.5504570070032e-23 0 0 0)
(0.133112023183432 -0.0193562887236102 0 45.8998494349502 -0.0596645445805727 0 0 0 0)
(0.346096612802495 -0.0898164976082979 1.80041557062584e-21 45.3201736576431 -0.414262510915228 1.69540119951375e-19 0 0 0)
(2.15878688380801 -0.209521871610048 -1.0829481475694e-16 40.5253040480534 -2.00416394177247 -1.57879487584909e-18 0 0 0)
(2.70560988831424 -0.279379522181524 -9.76507195520162e-18 22.743262802542 -2.5624670798888 -6.37184844283631e-17 1.92272226256508e-17 -2.97890184409579e-18 -4.10738738059108e-33)
(-1.06369722463303 0.730799246533357 1.20695833629613e-15 -0.319374342422721 1.21258306281603 3.13275210693918e-15 0 0 0)
(-4.41699309021941 2.42125676509957 1.66626613768751e-15 -8.61893230384585 4.55270870012167 4.30689047928641e-15 0 0 0)
(-4.25443746529915 2.72926436593499 5.04706471917593e-15 -7.00323293204456 4.34529429450783 7.87300305911446e-15 -7.57930212005564e-17 4.71090831199015e-17 -7.67684026579774e-32)
(-3.72053191275164 2.71505629348325 5.52867762107498e-16 -5.29397894797374 3.78782123298838 3.20748959726483e-18 0 0 0)
(-3.17592318566542 2.50475069685383 2.98638921929259e-15 -4.13596764629942 3.22451346705744 5.36650985460692e-15 -4.1782921178622e-17 3.25769611111717e-17 5.40812287119188e-32)
(-2.68363259758672 2.21778998157185 1.67112738862747e-15 -3.31208602097137 2.71992813661491 2.03261221645002e-15 -1.07838588223997e-16 8.8486050072355e-17 -1.87733980131569e-31)
(-2.2797027727175 1.91843334162723 5.51853954878626e-16 -2.74344220296003 2.30444830186827 -4.38749703252468e-18 4.26122082347937e-21 -3.65320335937949e-21 1.47774331813043e-36)
(-1.92870205767046 1.61225986338223 -1.80772672968038e-15 -2.32065239670338 1.94321741019067 -2.95145938082273e-15 -2.48191448685595e-17 2.08499953126124e-17 2.90280282120112e-32)
(-1.67813993487805 1.37631688965923 1.42640691126358e-16 -2.04731810431904 1.68450411007197 2.51698609192523e-16 4.20945782667806e-17 -3.47247905576214e-17 -8.25027023089468e-32)
(-1.54140389271304 1.24511439012828 2.68601861576404e-15 -1.90365476889324 1.54212104763132 5.17163096091506e-15 -3.82784042844231e-17 3.10952649023284e-17 -8.24546089935627e-32)
(-1.49909281534391 1.19778660888834 -1.09587434277096e-14 -1.86682048589116 1.49483108715554 -1.36121062488915e-14 -1.79860864934754e-17 1.4475988279687e-17 -2.55204098612918e-32)
(-1.54644822713513 1.2288256513766 7.569582752774e-15 -1.93393189122151 1.53918321296859 7.60193106468837e-15 -3.76837093353152e-17 3.0024962727016e-17 -1.98467866962573e-33)
(-1.68056103630087 1.33124974169797 -5.13396632275846e-15 -2.10635941898197 1.67070507205046 -7.66279981336023e-15 4.08377614565097e-17 -3.23636135074483e-17 -2.68439430242187e-33)
(-1.88426547186888 1.49006873449761 9.70964975989385e-16 -2.36755776793285 1.87457521071022 2.34919176383769e-15 3.63583616810879e-20 -2.84718600660996e-20 -7.62154469838961e-38)
(-2.12584587653255 1.67530498690546 4.18062398753035e-15 -2.68268824998598 2.11825259955928 5.44655725428778e-15 6.2449778722103e-21 -4.64520913287946e-21 1.49649554949026e-37)
(-2.35267597768903 1.8331021125317 -2.48305562963474e-18 -3.00199067959199 2.34813417592726 -2.12538269244781e-18 -4.01920358381491e-20 3.12364051690867e-20 -7.34418494326739e-38)
(-2.53328718130288 1.92631322829992 -4.57352659554803e-15 -3.30798289919072 2.53258412275563 -7.38856463453921e-15 -5.11125111403294e-20 3.79870578929247e-20 7.57367142954247e-35)
(-2.65093059430518 1.93884231490296 4.16860358177277e-15 -3.59073223131602 2.65396901691469 5.75949497662294e-15 3.56694823341308e-17 -2.59842334284509e-17 -2.08576645660108e-32)
(-2.68825786065414 1.85859781028576 -5.72305970661174e-15 -3.83758291420871 2.69441423946035 -7.08115592196597e-15 -5.28874026247476e-20 3.76638460421037e-20 7.17790744855614e-35)
(-2.63660496377151 1.6868503651564 8.73187115513165e-16 -4.04189732527622 2.64377692318834 -9.25300608642913e-17 0 0 0)
(-2.5034565162265 1.44407841636243 -3.52812848906066e-15 -4.21392383646667 2.50784382753278 -6.87392084934103e-15 7.82638454424724e-17 -4.63336464568378e-17 -8.95011290457726e-33)
(-2.30809271599303 1.1677069510031 -4.18423065507558e-15 -4.3755307603738 2.31019874193996 -6.34308953143281e-15 3.92754925430726e-17 -2.06625485484944e-17 -2.40645599110649e-33)
(-2.06993849751093 0.892504536666229 3.29110864967786e-13 -4.5277276914696 2.06876396444061 6.1141896107146e-13 1.16300574846644e-19 -4.89041885676571e-20 -7.97862751713267e-33)
(-1.78790353886485 0.63053302010851 9.65224595543338e-14 -4.65606388353843 1.78372340407186 2.51588566960627e-13 4.40818279029456e-15 -1.69317063027016e-15 -3.44872806554492e-28)
(-1.4736017786568 0.398813760361371 -9.86035462705735e-14 -4.7659925245657 1.46601224569397 3.21632800964839e-14 -9.30482928325719e-17 2.87485674660374e-17 6.69967034078897e-31)
(-1.14062422053661 0.211022113465799 9.97677795127042e-14 -4.88261469822401 1.13297582670664 4.22703961427827e-13 -4.66165267138059e-15 1.09163184302917e-15 -5.61966265745916e-29)
(-0.811717580846358 0.077937071583537 5.5103920510838e-14 -5.08219821988415 0.808558450124517 -6.58178587462518e-15 1.03265567508546e-19 -2.0314701578035e-20 8.45012071006981e-33)
(-0.561144373681576 0.00628799428178291 -6.01635294230643e-14 -5.63349100489474 0.537041661815923 5.81824389595926e-15 1.1762639478083e-19 -6.87348127766125e-21 9.11411342974647e-33)
(-0.323087610697309 -0.0154183731586985 -6.16620293653747e-14 -6.73555866294584 0.333378273056778 -4.9512035435726e-13 -3.14562789889191e-15 1.01397724157321e-16 -6.31803804023952e-29)
(-0.265406192196292 -0.00697848405613962 6.02823987128128e-14 -8.02353499717129 0.253806621382405 -5.02868333033926e-13 -4.27269790114748e-15 6.36566332243306e-17 -2.92183845767943e-29)
(-0.203594472720427 -0.00374093436812444 5.60526192570163e-14 -8.93321917919996 0.197169065937513 4.99847355473158e-13 0 0 0)
(-0.162885292138542 -0.00297412066641609 1.42746545319516e-27 -9.60218239372048 0.152524785387926 4.90905923270242e-13 0 0 0)
(-0.130634231422288 -0.00220345327268307 7.05088217941896e-33 -10.0957860660342 0.120348476343806 1.09986681530917e-17 0 0 0)
(-0.107612377213785 -0.00168818009811881 4.82824865771379e-30 -10.4720440137143 0.0959487855942641 -9.30277308071757e-18 0 0 0)
(-0.0893814061134547 -0.00129772414255497 -6.55585591326535e-19 -10.7577495327359 0.0773005971111791 4.77692452658664e-20 1.3261313446147e-30 -7.22405313265341e-33 5.71007094301228e-52)