/*--------------------------------*- C++ -*----------------------------------*\
| =========                 |                                                 |
| \\      /  F ield         | OpenFOAM: The Open Source CFD Toolbox           |
|  \\    /   O peration     | Version:  3.0.1                                 |
|   \\  /    A nd           | Web:      www.OpenFOAM.org                      |
|    \\/     M anipulation  |                                                 |
\*---------------------------------------------------------------------------*/
FoamFile
{
    version     2.0;
    format      ascii;
    class       volTensorField;
    location    "30000";
    object      grad(Usqr);
}
// * * * * * * * * * * * * * * * * * * * * * * * * * * * * * * * * * * * * * //

dimensions      [0 0 -1 0 0 0 0];

internalField   nonuniform List<tensor> 
21000
(
(0.0201227816256133 6.79214134162712e-06 0 6.90146473969938 7.25097178268725e-05 0 0 0 0)
(0.0866016026299324 0.000173603806071374 4.94209663473835e-41 8.40767502251177 0.00123141044771406 4.29164690264424e-43 0 0 0)
(0.441957223341637 0.00215188270277446 1.92137218627647e-40 5.744212284324 0.0255240147272967 1.01172829837164e-39 -2.20182570061658e-22 -1.82675514399255e-24 -1.52393128184659e-60)
(0.0975961786182918 0.00247661151658084 9.79196703239312e-33 0.586299029885867 0.011206906530095 3.08435757267015e-32 -1.18122887624175e-18 -2.25634744659998e-20 -6.20140059044213e-50)
(0.135190300006135 0.0183984525466392 2.4953985731608e-32 0.373220870355459 0.0495651887813638 7.15016162735679e-32 0 0 0)
(0.308887887834456 0.0792655407243768 -3.88041243706369e-33 0.607089173474921 0.153535749954856 -6.02417410539688e-35 0 0 0)
(0.19561885064962 0.0772532023795247 3.41535595893421e-31 0.310569825614458 0.121140649017501 5.32802314077657e-31 -2.91704564417129e-18 -1.13771797346401e-18 -5.00333141126127e-48)
(0.12992929692225 0.0674751037651203 1.75963333324749e-32 0.179163487331835 0.0924724488354917 -4.15373824129805e-35 -1.72402653120969e-23 -7.12214493757499e-24 -8.05382749258921e-61)
(0.0861178385460753 0.0528892197331246 2.10872220589434e-31 0.109163901545951 0.0667764733681799 2.40032441313012e-31 1.1033630990616e-18 6.74940508318237e-19 2.42931701212735e-48)
(0.0580991796782291 0.0395198061886952 1.97877642849424e-30 0.0700534387791841 0.0475346349438339 2.38698932800226e-30 -7.21866283659495e-19 -4.89831570182523e-19 -2.45954083384106e-47)
(0.0411019924340524 0.0292408276976769 7.09538712005761e-32 0.0484556920053226 0.0344324512475701 -2.2248717587567e-33 6.96900433525534e-24 5.19351931689691e-24 2.4281904646764e-51)
(0.029081145998789 0.0206184453582884 1.39684439292623e-30 0.0343744757437346 0.0243661114042324 1.63476757636272e-30 -3.56872763457949e-19 -2.52966915080915e-19 -1.69809800788253e-47)
(0.0218964112982439 0.0149962258653201 4.56182561646053e-31 0.0263812914961364 0.0180744866516587 6.21051860933605e-31 -1.58398247674879e-23 -1.08664789887561e-23 -2.52927825626537e-51)
(0.0183791360839174 0.0121807439851051 8.03475498868979e-31 0.0225640639409521 0.0149601149540012 9.46884855112522e-31 2.19060480017899e-23 1.45368460727836e-23 3.01941015587109e-51)
(0.0172717847552868 0.0111459098368542 7.73375675875571e-31 0.0215395792536981 0.0139040718891348 9.96855815266463e-31 -2.18205667175701e-19 -1.4085351171984e-19 -1.00881947827744e-47)
(0.0184410730285654 0.0116796100604741 5.31348363549783e-31 0.0232786157697509 0.0147470927217927 7.10135684899682e-31 0 0 0)
(0.0222967602845359 0.0139150967586098 6.01192657110231e-31 0.0284022332500207 0.0177307401052784 7.26133958296499e-31 0 0 0)
(0.029423764717911 0.018159616259281 3.04687568683493e-31 0.0377299500779636 0.0232966861187444 3.44037454359305e-31 8.55754398868539e-23 5.2972585085903e-23 6.85316163785745e-51)
(0.0401422270598838 0.0245011920245443 2.41955158831147e-31 0.0517339290009646 0.0316010278247588 3.58417555984409e-31 -2.01185077479565e-22 -1.22489867976778e-22 -1.00767868568256e-50)
(0.0530130513168365 0.0316534473705966 -3.47186528930439e-32 0.0689837538341229 0.0412464190980303 2.64032549606686e-33 1.14589029557911e-22 6.89490347875355e-23 3.32917337857097e-51)
(0.0667567949368904 0.0380958138171272 4.18423794559787e-32 0.0887384967912831 0.0507507081811946 -3.49232385541219e-33 2.0099996624118e-22 1.08416499782648e-22 3.81786673360141e-51)
(0.080054055609256 0.0425213956628672 8.54281066382541e-31 0.11015037275188 0.0586889737352841 1.18253085833039e-30 1.07340527585583e-18 5.71822834780012e-19 1.15173277840814e-47)
(0.0907754967930817 0.0435223219318933 -4.05843794016462e-32 0.131287850751236 0.0632105180395384 3.51428069795445e-33 5.18113503242723e-22 2.39623922995091e-22 3.61820754214019e-51)
(0.0965711711984843 0.0402710372921933 1.08415001649246e-37 0.149557519307052 0.0627182476321257 4.35478249262624e-37 -2.71498466644927e-22 -1.18735588274045e-22 -1.80704148607992e-56)
(0.0961731906947571 0.0333156311863582 5.22972379557547e-31 0.163193830104204 0.0569702376368607 8.67177028414391e-31 0 0 0)
(0.0912391216230139 0.0249476005305295 1.98558511050207e-31 0.174158825997089 0.0481216939141739 3.50988877885811e-31 0 0 0)
(0.0831673808942742 0.0171015873318531 4.88553469772582e-32 0.182812023973088 0.0381185910293058 1.35493817890697e-31 -6.26552112723198e-22 -1.13570056199607e-22 -2.26951848230012e-51)
(0.0712127773060055 0.01034915356512 1.22050361604617e-27 0.185734505904108 0.0275251155930886 3.17896895989142e-27 6.06507038560038e-22 1.09936647017822e-22 2.19691052939634e-51)
(0.0564556580595922 0.00530041896548338 2.72651039174134e-31 0.182225884383589 0.0176315799725625 8.75825887413892e-31 0 0 0)
(0.0409634245782758 0.00215568295867266 9.80343786955336e-28 0.174727761773906 0.00969444419067984 4.14356909770092e-27 0 0 0)
(0.0261866352221496 0.000587933952796549 9.80162473153991e-34 0.166590186925479 0.00420185795521688 -7.66263111088727e-35 3.65854405951942e-22 6.9249625025327e-24 1.53314735085333e-52)
(0.0145300334036668 7.00616926294681e-05 3.20946638264701e-28 0.170112314743383 0.00129353750942899 -2.6530499394248e-29 -1.3672703393456e-22 -6.23704824786857e-24 2.50509882976614e-47)
(0.0066532308252928 -3.50292622176799e-06 4.13989911373774e-28 0.278412148302512 0.000341744526385486 8.23251768438551e-27 -1.6044651217978e-16 -1.96721810215554e-19 -4.73314420984219e-42)
(0.00527190223478329 -5.51583744228644e-07 -3.21232357891523e-28 0.519953232494996 0.000156532348895114 7.60702680985673e-27 -3.00433088410305e-16 -9.03003846030969e-20 -4.40213685345404e-42)
(0.00536802667610373 5.01942549081681e-08 -3.20188912827415e-28 0.745091320807249 0.000104065744442024 2.50761716620017e-29 1.32844567250651e-21 2.68122843892794e-26 8.47826685870645e-57)
(0.00521046624891055 3.53447995167435e-08 -1.87545299636059e-39 0.959433667292794 6.71876523555223e-05 5.52298829027724e-37 -1.3284456725065e-21 -2.68122843892792e-26 -8.47826685870638e-57)
(0.00479955554946487 3.66844388223662e-08 -5.37381356260738e-38 1.14706870047537 4.61728295141713e-05 5.48940082410703e-37 2.10945999195253e-21 3.24322388404912e-26 4.13911456275112e-57)
(0.00440296119352899 3.03467855912721e-08 -5.30493166140457e-38 1.31505220670597 3.2556612321057e-05 3.81037067813547e-39 3.43533291868594e-22 2.36775449375341e-27 -4.13907948918252e-57)
(0.00399596614134066 2.92881212984389e-08 2.06380979610921e-37 1.46230772980894 2.41689257870523e-05 -1.39155433788833e-38 3.11778219791653e-22 2.28515407700769e-27 1.61025124202786e-56)
(0.00362969789557775 2.49521341603326e-08 1.50375781488838e-43 1.59256619936884 1.84464657432484e-05 2.70721572999696e-36 -5.81274379225809e-21 -7.61171411400396e-26 -3.22051067204101e-56)
(0.00327557258535764 2.10480214448628e-08 -1.55271319375784e-37 1.70647144822248 1.44784838478286e-05 5.81266451161574e-37 -2.55570781467762e-22 -1.64223479982095e-27 1.21147712036022e-56)
(0.00293596982074705 1.56874710735886e-08 -4.11205542695056e-43 1.80541441831316 1.15233092103806e-05 1.08895661384741e-36 3.30354307008799e-21 4.06742285283541e-26 3.98778802306374e-57)
(0.00259692128978561 1.01115493744369e-08 3.45395351066506e-40 1.88973325624952 9.26520654391503e-06 5.52134721198804e-37 0 0 0)
(0.00225604952655943 3.99691462829087e-09 7.1465099655109e-43 1.95983776808657 7.47472826818378e-06 5.28587060399212e-37 -3.91126144410255e-21 -4.29990038813419e-26 -4.01476056279693e-57)
(0.00190890075691695 -2.13983652784026e-09 1.54803081312517e-37 2.01582985914034 6.04116719099901e-06 -8.29994299621836e-39 -1.48938619272524e-22 1.66956976033272e-28 -1.20782377534582e-56)
(0.0015558789724449 -8.21788517061754e-09 2.86705613212752e-28 2.05785682078819 4.88977379774486e-06 -1.49692420231631e-29 8.24179484300479e-21 8.50229077940186e-26 2.23697005076157e-47)
(0.0011980940023727 -1.39898327168257e-08 2.9419284777755e-28 2.08605739946088 3.98046667137091e-06 5.96843884002283e-27 1.2016059554095e-15 2.2795453247481e-21 3.43386472650652e-42)
(0.000838077504772006 -1.94116917431688e-08 -2.86705613161758e-28 2.10069619099466 3.28355930651097e-06 6.01124005320748e-27 1.21321677721288e-15 1.90803084231841e-21 3.475448576144e-42)
(0.000476770839754232 -2.4389910698965e-08 -2.94192847931951e-28 2.10215372886932 2.77494316303132e-06 1.40801487182442e-29 -4.34046347514375e-21 -3.95847657765383e-26 -2.2953878784805e-47)
(0.000116045310745427 -2.87764169269649e-08 8.64254992315312e-40 2.09076405647683 2.44003090564559e-06 5.45962757148167e-37 -4.38671691103295e-21 -3.54365567085371e-26 -8.29028290157803e-57)
(-0.000237456650412567 -3.23046190023246e-08 -3.96132067479329e-38 2.06682679635694 2.27578522366779e-06 2.23888111356752e-27 4.38671691108187e-21 3.54365567089323e-26 8.29028290167049e-57)
(-0.000577591992916328 -3.48139733981341e-08 3.01903378694868e-28 2.03113497665114 2.27096781740806e-06 2.27684673635775e-27 -2.1615620881428e-21 -1.50998733788587e-26 -1.17777396817192e-47)
(-0.000900332332392425 -3.63483589447716e-08 3.09766817887547e-28 1.98452870629784 2.41014733688672e-06 6.17283651740561e-27 -1.14341455773042e-15 -1.38141034281749e-21 -3.55364354072598e-42)
(-0.00120099265506578 -3.7012861395707e-08 -3.01903378734185e-28 1.92796486227075 2.67500888951661e-06 6.25982006437412e-27 -1.11310886328882e-15 -1.54921360544008e-21 -3.61683387592924e-42)
(-0.00147595733747286 -3.68790006332341e-08 -3.09766817901127e-28 1.86249349059977 3.04526440322271e-06 1.07821984909318e-29 -2.07958599769954e-21 -1.22379333786727e-26 -1.20845051764697e-47)
(-0.0017222643387922 -3.60207179221952e-08 -1.38522008033382e-38 1.78923437853448 3.49938251735859e-06 4.5202501751661e-40 0 0 0)
(-0.00193766796242897 -3.45291356219279e-08 3.06744081664476e-60 1.70935356274979 4.01525583007666e-06 -8.67504984031939e-62 0 0 0)
(-0.00212067638099417 -3.25075420684293e-08 3.11225780489149e-60 1.62403943937063 4.57093003122604e-06 6.24983628643283e-59 9.11510272044399e-32 2.56501031671994e-37 3.51232234454383e-90)
(-0.00227054893693134 -3.00653270581745e-08 -3.06744081665818e-60 1.53447973588012 5.14529837354671e-06 6.37393654315857e-59 -8.61242096830708e-32 -2.88752495349118e-37 -3.57292097213927e-90)
(-0.00238726428877659 -2.73126831865685e-08 -3.11225780490475e-60 1.44184013724198 5.71871972549801e-06 7.44767443891166e-62 0 0 0)
(-0.00247146471256079 -2.4355877222133e-08 3.86516662177561e-39 1.3472451033794 6.2735316613521e-06 1.57094726094176e-37 0 0 0)
(-0.00252438069161397 -2.1293421405135e-08 3.89242737439786e-39 1.25176132761163 6.7944215544885e-06 3.99857033037987e-37 7.09945375572678e-22 1.37976290374992e-27 1.51318151884048e-58)
(-0.00254774329046173 -1.82133184871505e-08 1.26218373129751e-40 1.15638408976465 7.2686696915989e-06 8.09487410285073e-38 -7.09945375570095e-22 -1.3797629037449e-27 -1.51318151883498e-58)
(-0.00254368946503839 -1.5191183543519e-08 1.29982165888391e-40 1.0620265645526 7.68625333272864e-06 4.10092900456756e-38 6.10632857362276e-22 7.28181045457194e-28 1.56315550831838e-58)
(-0.00251466476280746 -1.22893009008452e-08 3.6671555705919e-28 0.96951208594127 8.03983294423617e-06 -3.98888731945825e-30 -6.10632857362194e-22 -7.28181045457097e-28 -1.56315550831817e-58)
(-0.00246332869866482 -9.55648149866938e-09 9.466370709757e-31 0.879569211571599 8.32463173398616e-06 7.78200790494806e-27 5.07151062285569e-16 4.80145352089768e-21 4.48632794264127e-42)
(-0.00239246604047641 -7.02854941140609e-09 -2.27423858630707e-29 0.792829359274036 8.53824279241837e-06 1.9936992842041e-29 2.25648416421355e-17 2.40792385395757e-22 3.61259300955208e-45)
(-0.00230490633453931 -4.72930361208109e-09 -9.46637074778108e-31 0.709826737466614 8.68036682743951e-06 7.38664674716602e-27 -3.89467024338978e-16 -4.76211279203986e-21 -4.05318178688532e-42)
(-0.00220345360137732 -2.67183339343558e-09 -3.4397317120016e-28 0.631000258661555 8.75252319150332e-06 1.49660434179121e-30 1.05476753284423e-22 1.81787327713572e-29 1.67736880111831e-48)
(-0.00209082718554253 -8.6001518018737e-10 -2.68728468499553e-40 0.556697097191214 8.75773131557907e-06 5.84609827022769e-43 0 0 0)
(-0.00196961424335978 7.09896591011314e-10 2.84341197677238e-40 0.487177562814233 8.70020378640901e-06 6.18574799006879e-43 0 0 0)
(-0.00184223301137265 2.04770941162749e-09 2.86889123356437e-40 0.422620960368444 8.58503985560019e-06 2.9222156006761e-39 6.59476055668008e-23 1.44031747437224e-29 2.78557747790161e-60)
(-0.00171090661428716 3.16780822142514e-09 -2.84341197677483e-40 0.363132166017595 8.41794455772916e-06 2.94590443103711e-39 -6.59476055905204e-23 -1.44031752256139e-29 -2.78557747806548e-60)
(-0.00157764702650315 4.08782862205882e-09 -2.86889123356672e-40 0.308748616484931 8.2049836978257e-06 -1.87235317842652e-42 0 0 0)
(-0.0014442464970061 4.82746436233787e-09 0 0.259447489531089 7.95236602141383e-06 0 0 0 0)
(-0.00131227642219811 5.40751816688756e-09 0 0.215152902992244 7.66625275833208e-06 6.29708831431115e-38 0 0 0)
(-0.00118309177962177 5.84902345243214e-09 0 0.175742920292408 7.35262645071808e-06 6.48682013792795e-38 0 0 0)
(-0.00105784114648276 6.1727963436152e-09 0 0.141056287337063 7.01715319701196e-06 0 0 0 0)
(-0.000937477910580195 6.39861619962626e-09 0 0.110898705854224 6.66514528812876e-06 2.80533195488176e-37 0 0 0)
(-0.000822776580389042 6.54554685180358e-09 0 0.0850487610615494 6.30141242380657e-06 2.89170133499376e-37 0 0 0)
(-0.000714347604517677 6.63024774363093e-09 0 0.0632631379015525 5.93037853391211e-06 3.01396067346237e-37 0 0 0)
(-0.000612658421493118 6.66418486342788e-09 0 0.0452815504984972 5.55574235405804e-06 3.10695012467553e-37 0 0 0)
(-0.00051804588232732 6.65532802938258e-09 0 0.0308306942774863 5.18102439582009e-06 3.2359295685303e-37 0 0 0)
(-0.000430738769956175 6.66137203622772e-09 0 0.0196282705913159 4.80918749848663e-06 3.33505751477849e-37 0 0 0)
(-0.000350871995887905 6.71349965495808e-09 4.96745598926143e-28 0.0113856104414962 4.4539058143703e-06 1.62098024165066e-29 0 0 0)
(-0.000278502773967303 6.7530154344192e-09 1.99618710565937e-27 0.00581070035945841 4.11597540350626e-06 1.31277498035861e-26 3.3675920059301e-18 2.37555720627751e-21 7.58134654882424e-42)
(-0.000213617500630927 6.95172204655053e-09 3.96601466296127e-30 0.0026097726910846 3.78518764259614e-06 5.36558619569466e-26 3.01445081337344e-18 4.36630287516502e-21 6.18937046287234e-41)
(-0.000156171664287442 7.3508943486878e-09 -1.99618710564897e-27 0.00148930707260105 3.4612934451573e-06 1.35513744042389e-26 8.5445832197954e-19 1.99420621370756e-21 7.80510227338627e-42)
(-0.000106069843611148 7.55262413520725e-09 -5.00711613486472e-28 0.00215656297449539 3.14705283494563e-06 -1.96070656837089e-29 0 0 0)
(-6.31970640400849e-05 7.56732888785691e-09 9.27953289407425e-38 0.00432042402098319 2.84150868741116e-06 2.43944616998342e-36 -2.59032025904563e-24 -8.96568443963778e-27 -1.44410703339426e-56)
(-2.7427743705736e-05 7.5218547194797e-09 1.50412295389634e-39 0.00769244836451625 2.54807814337817e-06 2.44065283206521e-36 2.59032025901753e-24 8.96568443954051e-27 1.44410703337859e-56)
(1.38734998352296e-06 7.4682577093452e-09 8.31951534508928e-40 0.0119829894907032 2.2632100429651e-06 2.44062322128528e-36 5.58564405694029e-25 1.01352615588021e-26 1.46233384313201e-56)
(2.33505426626852e-05 7.42893649252183e-09 -9.37955782594448e-38 0.0169093932217794 1.99348737214125e-06 9.57321000986271e-37 -5.58564405688986e-25 -1.01352615587105e-26 -1.46233384311881e-56)
(3.86704303857737e-05 7.66167640094157e-09 -9.36272804757138e-38 0.02217632200686 1.73522072248355e-06 -4.68470964785971e-39 0 0 0)
(4.73305895266981e-05 7.85432483771919e-09 9.43015388074947e-38 0.0275111165230267 1.50535175645132e-06 5.12874636746673e-39 0 0 0)
(4.97686366468967e-05 8.43683195139271e-09 3.77264539826813e-37 0.0325939998263564 1.29268595654382e-06 9.90075460063037e-37 -1.29736376799922e-23 -1.25837688631969e-26 -3.67931126818131e-56)
(4.56748689472459e-05 8.67671188375753e-09 8.91827906434687e-41 0.0371816855785651 1.13093340056251e-06 3.87575645013098e-36 2.95109765591151e-23 2.58445228881969e-26 7.35931836937767e-56)
(3.62791963224947e-05 9.88351584685099e-09 -2.82216564011936e-37 0.0408862423396345 1.00149839065388e-06 9.5328277576836e-37 -1.65373388791537e-23 -1.32607540250249e-26 -3.68000710120326e-56)
(2.06015414990862e-05 9.94836473958697e-09 6.95460704338966e-40 0.0435667368196847 9.68916178185317e-07 9.76653756535333e-37 2.09753582592672e-23 1.48081015762814e-26 1.48348827899261e-56)
(2.16401853491988e-06 1.23291935963577e-08 7.81667136986074e-40 0.0446659040168916 1.01694188428841e-06 9.77054811371564e-37 -2.09753582596399e-23 -1.48081015765446e-26 -1.48348827901897e-56)
(-2.12664797161402e-05 1.1157191867293e-08 2.89397412677204e-37 0.0444058106684585 1.22669493726722e-06 1.00415807582454e-36 1.94849223723648e-23 1.6640585433938e-26 3.74755943790077e-56)
(-4.22909436736154e-05 1.69555190824517e-08 2.91009955001263e-37 0.0418413913931799 1.69533672783364e-06 3.97017275725339e-36 -3.56701683547153e-23 -3.46040953792906e-26 -9.76567279199375e-56)
(-6.35372549879721e-05 1.23251871789851e-08 -2.87269925966176e-37 0.037887706455571 2.39427881994328e-06 3.9541214932545e-36 2.74131095569024e-23 3.68886709109157e-26 9.79485370972074e-56)
(-6.97010040428938e-05 2.682672444499e-08 -3.86839597954163e-37 0.0308021623381904 4.07166467392167e-06 9.70880802453577e-37 -1.12278635747469e-23 -1.89251609658458e-26 -3.77674035569642e-56)
(-5.22154243722071e-05 1.13442865449493e-08 1.86420518678313e-39 0.0234775607701301 5.53977222162474e-06 3.53428165808038e-40 0 0 0)
(-6.22387701696639e-06 4.59472172845541e-08 4.10229191313665e-43 0.0131756387168786 1.05212236342031e-05 1.01780272664366e-36 1.22994194624105e-24 2.54883375632888e-26 7.73040862888292e-57)
(0.000159715188984645 5.6563549739939e-08 -1.25609142646871e-39 0.00630878411207128 1.21633201245671e-05 7.55663346525796e-36 1.24614963025221e-23 4.41327133895537e-27 -9.80043211048279e-59)
(0.000284213481093026 2.18101820125975e-06 -6.88795284021948e-36 0.00171859143992952 2.75053215462899e-05 6.38719665721129e-34 -2.22705222087913e-22 -3.39999417580917e-24 -7.88564363270698e-53)
(-0.00024211166360949 2.89366527365836e-06 6.28809189947352e-33 0.00428846880768254 3.27174913713242e-05 5.38464441945847e-34 9.19003969440134e-23 1.31643736385444e-24 9.84517623318595e-52)
(-0.000620956961195383 -6.38901759727814e-06 -1.03630394073557e-32 0.00319525698233635 7.59194780675583e-05 6.42643730674629e-32 -9.25083880171712e-23 -1.32514659898519e-24 -9.91030956734433e-52)
(-0.00068365088857618 -2.22472744284977e-05 -1.00609276444637e-31 0.00218112666830942 9.31485814392489e-05 5.03713307590148e-31 0 0 0)
(-0.000825602704960773 -4.00236355307825e-05 -2.23906702483353e-31 0.00203012311165224 0.000103151742159154 7.16987972447471e-31 8.46967784174892e-21 4.29661493284046e-22 2.96714548743555e-48)
(-0.00209728026981641 -0.00021660129460613 -1.67361373151817e-31 0.00515242862077215 0.000555170153333763 4.30336373426378e-31 0 0 0)
(-0.0062240488805497 -0.00108710710671419 -2.61594302010487e-31 0.0137530060991204 0.00245882497307442 6.23011634158575e-31 4.70470278598711e-24 2.67836326776937e-24 3.65115470077436e-51)
(-0.0153658753455746 -0.00379630969726658 -5.4613380252885e-32 0.029946154241838 0.00750581049479835 2.16896100756928e-31 -4.88134785431543e-24 -2.77892640299066e-24 -3.78824273819865e-51)
(-0.0338036107027924 -0.0108263318207279 -9.45255683753397e-31 0.0587637998936697 0.0189939988819346 2.10411606777887e-30 5.37941125792715e-19 1.73785855089117e-19 1.90235735777939e-47)
(-0.0668491547739615 -0.0260726826098545 -1.9792143327831e-30 0.106054360617232 0.0415949986779214 2.920099003113e-30 -9.95249147947328e-19 -3.9022037915997e-19 -2.74871810239351e-47)
(-0.118638490870242 -0.0534589856591379 -2.45998457738316e-31 0.1756537376301 0.079414092101755 -2.20522273641298e-32 0 0 0)
(-0.193894814378741 -0.0969199344767215 -4.66562140438449e-31 0.272835820065787 0.136632286610626 6.42873650147999e-31 0 0 0)
(-0.296438010820709 -0.159257855327767 -6.78395647085345e-32 0.402533286788561 0.216431200288531 -5.66028649546226e-33 0 0 0)
(-0.43005748012675 -0.241759390896285 5.3861807319825e-32 0.570820614140421 0.320922439540901 4.0952662862303e-33 0 0 0)
(-0.588322603602449 -0.338722328826779 -1.06488986170573e-30 0.771879315208472 0.444361249248565 1.38368198338673e-30 -1.94470333366376e-21 -1.07971429090388e-21 -5.26636092857999e-51)
(-0.758157528737613 -0.443359551674843 -6.73412331184663e-31 0.987332486409155 0.577425436372864 7.96727510275288e-31 2.00683497133791e-21 1.11421025537968e-21 5.43461673573151e-51)
(-0.942991575962111 -0.562314774152751 -1.92311017075404e-37 1.21606773859434 0.725355081602811 1.79886294069626e-37 0 0 0)
(-1.15933203938252 -0.708837722473435 -1.39577711381607e-37 1.47607337489826 0.902885175055665 1.77020432571124e-37 0 0 0)
(-1.41674683989185 -0.893517623987757 -5.66382767576948e-31 1.77582514281043 1.12054610247614 7.0724728689757e-31 0 0 0)
(-1.7509785642123 -1.14385375719902 -5.46453205185319e-31 2.15485972989239 1.40841477259007 6.69799453128542e-31 0 0 0)
(-2.19930829127974 -1.49469483687475 -4.91399905100138e-31 2.65270974819056 1.80324277624879 6.27328601658359e-31 2.73005125072605e-17 1.85578168385166e-17 6.44461813375983e-48)
(-2.93122940490742 -2.06207724892903 -2.91713472959565e-31 3.46891140534233 2.43841976422623 3.73204607856608e-31 0 0 0)
(-4.12193573561744 -2.90445439311481 -3.25509823066217e-31 4.86898037041816 3.42361845070075 3.41352296236986e-31 0 0 0)
(-5.92195925173588 -3.98481786575032 -2.80579690148431e-32 7.15316458068949 4.79628918789341 -5.68930611676363e-34 0 0 0)
(-8.58697809993793 -5.22662723345832 -3.14443449449534e-31 10.9035286461706 6.60080432839288 3.94814585102158e-31 -1.10210569387076e-16 -6.67192820870916e-17 -3.99014963733366e-48)
(-12.5404844912258 -6.44962061175301 1.43583632557643e-32 17.3256023665797 8.83866678028664 -8.1356353036535e-35 -2.03935532619012e-21 -7.63650087004926e-22 -6.30211667253015e-53)
(-17.8773259744572 -7.0334324446973 -1.33444302139088e-31 28.2714860710405 10.9907816403351 2.25746185227167e-31 2.03217916318631e-21 7.60962925316208e-22 6.27994053876361e-53)
(-22.8187536076889 -5.8459099664197 -1.40009652852876e-31 44.8002703913178 11.2964431718816 2.45780701745782e-31 1.9913018853106e-16 5.02046142597155e-17 1.09176383584394e-48)
(-20.0860333364791 -2.52439353069451 -1.04367547967657e-32 57.036958725158 6.99013635984508 1.62051421351012e-34 7.14904959493761e-21 5.40401741653448e-22 4.83025411637078e-54)
(-9.66776458864476 -0.438329850362254 -3.79256158839434e-33 47.5432748374843 2.0033057134404 2.00340848820475e-32 -9.57647335741767e-17 -4.03449024094781e-18 -4.03618916893118e-50)
(-2.58963240638759 -0.0305305819114811 -7.30662568755527e-34 28.0511505331525 0.251100937965361 2.83721292342276e-33 7.54292539710873e-22 3.80166619895786e-24 6.75621901180913e-55)
(-0.230467803241005 -0.000846066433618791 -1.38473013188048e-34 11.9883391946341 0.00679231735130582 1.20290082582248e-36 -7.53332674907902e-22 -3.79682843988573e-24 -6.74762147638463e-55)
(-0.00859287459987511 -4.87628109192032e-06 -9.13947034429513e-42 6.82956768985547 9.93131987086504e-06 3.97652262663855e-44 0 0 0)
(0.0586325452104692 5.42963228082888e-05 0 20.082164744822 3.78925875426368e-05 0 0 0 0)
(0.166654518374367 0.00114033182269517 2.17112643922443e-42 20.8029575873707 0.00201875106342522 2.04448929981071e-40 0 0 0)
(0.972775893630839 0.0043708273403443 1.58536539357815e-33 15.9602532637612 0.0467203407179835 2.01263053357498e-35 0 0 0)
(0.503423308526885 0.01213602554404 1.44587710009987e-34 3.86429583029384 0.0564583071619048 9.41140082737736e-34 1.14542062199697e-18 2.18771500438837e-20 6.01227863219399e-50)
(0.00517701149455577 0.017150491684311 -2.58901939195612e-32 0.0175148541361824 0.0286943776995478 -6.93373554817226e-32 0 0 0)
(0.492285192912321 0.135367783475954 1.05289471348449e-31 0.961311513582901 0.256496826094313 1.39398116982108e-31 0 0 0)
(0.364075561554249 0.144417043010524 3.35276120212496e-31 0.603369525862649 0.230340406622533 5.27074019836062e-31 2.826521021322e-18 1.10241157721445e-18 4.84803456933832e-48)
(0.249108264030624 0.128997866130006 -3.4912261665266e-32 0.355920634268922 0.180288107190715 -1.97817629304804e-34 0 0 0)
(0.171322741920202 0.104432780794157 -1.3247298542469e-32 0.223797426235933 0.134710243512802 -2.34816374439536e-31 2.26052459070786e-18 1.36074955572343e-18 -2.35225557262616e-48)
(0.119672304304966 0.0806012187063432 3.00776284217059e-31 0.148065552558034 0.09904501850906 3.62019797616257e-31 2.92272644636396e-18 1.96864257003961e-18 5.13728525163232e-47)
(0.0871036672229677 0.0611890543002029 -1.1721229348725e-31 0.104998662558812 0.0736173182954127 1.926887613335e-33 -5.94797243814178e-23 -4.45609837267751e-23 1.06210453107344e-51)
(0.0640145193864776 0.0446785337166717 -3.01705593666367e-31 0.0771470925406261 0.0539444815698263 -4.20621463744663e-31 3.45876882287013e-19 2.45173434367782e-19 1.64510001108554e-47)
(0.0503075104795556 0.0339554234204659 2.79582575786594e-32 0.0614502332985053 0.0416207824667877 1.81978786286464e-32 -8.94611507207192e-19 -6.07936393371237e-19 -6.36176430162471e-48)
(0.0439693654905006 0.0288503006819849 -2.04661480286933e-31 0.0543491934394632 0.0357664441018869 -2.66595558796649e-31 7.76760896764091e-19 5.12229170912973e-19 6.65295872610668e-48)
(0.0428975228989089 0.0275652795805876 3.28771946649487e-31 0.053453420630596 0.0344241514973233 3.98432049302104e-31 2.11780036652969e-19 1.36705243565885e-19 9.78451699473254e-48)
(0.0470392609256313 0.0298762136827747 5.73165319130205e-31 0.0588493986483285 0.03744098925898 7.15876251713232e-31 8.19549682286208e-19 5.20763811944623e-19 1.4116489130088e-47)
(0.0574106109220709 0.036169267009767 4.97632744681104e-31 0.0719783753287682 0.0454155535019072 7.29553792329912e-31 -9.97728071102629e-19 -6.27645275515284e-19 -1.43368035975286e-47)
(0.0749987131605205 0.0469595432158284 2.09830005825322e-31 0.0942699266466153 0.0591171677650905 3.69607390941632e-31 -7.87818658840169e-22 -4.8292485822698e-22 -6.82819054988116e-57)
(0.0997438590888629 0.0618767690987966 -2.65105325237165e-31 0.1259494443292 0.0783146738555679 -3.45239151914419e-31 -2.93377629774486e-22 -1.69861557721935e-22 -4.47080406594035e-58)
(0.128315205707285 0.0777787886191195 3.34854513600779e-37 0.16382458868771 0.0997301492874319 3.31744698735175e-37 1.02404601572529e-21 6.18063251680697e-22 6.84492882548845e-57)
(0.15771686873863 0.091145255722073 5.92533128257723e-31 0.206051663974149 0.119935620871704 6.75935315889896e-31 1.70858050834449e-21 9.4207233851074e-22 7.56102763407635e-51)
(0.184989542346993 0.0991307159672118 -2.58075977047328e-31 0.250692259174508 0.135800699284652 -3.60503567403047e-31 -1.04431621670933e-18 -5.56294962116717e-19 -1.11829940186657e-47)
(0.206088808047616 0.0991177991445402 3.85191091724761e-31 0.294343219530595 0.143792624517088 6.91703189882696e-31 1.96684387954782e-21 9.95685804404415e-22 7.16596176587592e-51)
(0.217383185241538 0.0901947637977917 9.49358584145396e-32 0.333415056616168 0.141448707919033 -8.6193232798896e-33 0 0 0)
(0.217775474510934 0.0742739508717231 4.47393947500526e-31 0.366747091702402 0.12906543586626 7.1606040292159e-31 -4.81297922623011e-18 -1.68760706954796e-18 -1.42976989108497e-47)
(0.209651209999513 0.0557751084648717 -5.90879047990782e-32 0.397651649144757 0.110413311853444 7.02787373190984e-32 -2.52653109877222e-18 -6.99451997063143e-19 -1.79863665186423e-48)
(0.19477318893855 0.0383571578660653 2.78685784919866e-27 0.426303518458816 0.0889288264124751 5.38413857009796e-27 -5.54843418401146e-21 -9.87137838475339e-22 -5.28395616464666e-47)
(0.171942206513811 0.023346258948148 3.5013646526725e-28 0.448049167113596 0.0660065062973071 8.95419623329011e-28 -3.02544007169398e-16 -4.45922568274684e-17 -1.91092240587041e-42)
(0.142935632276121 0.0120448625801996 1.01604918441053e-28 0.462518916770413 0.0441739453310071 -8.06506952540286e-31 7.82781163343164e-18 7.38013227041797e-19 -3.34432652975606e-44)
(0.110853280922428 0.00486763487585707 6.87820847535092e-28 0.474638105828092 0.0259238062406488 2.8938231903389e-27 3.25542609573957e-16 1.78291225583132e-17 3.4972408145834e-42)
(0.0794658684560159 0.00125849754904592 -4.20229569328867e-28 0.497838315742105 0.0127383088970072 3.66895082450839e-29 -4.81259498961562e-21 -1.93986180955253e-22 -6.41216098382403e-47)
(0.0579281923752231 6.25023662023644e-05 4.98265468890285e-28 0.578568265210581 0.00510707712589725 -4.12136701739439e-29 -6.37501040024603e-21 -2.35632163908146e-23 -7.54001888510383e-47)
(0.0411755802845686 -8.69273494972672e-05 3.95706984596884e-28 0.849489932837303 0.00175293553078419 -3.07954109574054e-27 1.59423246287661e-16 1.9333810998067e-19 4.66186581186679e-42)
(0.0414241031017312 -2.32642944259491e-05 -4.98684944050144e-28 1.29589251766006 0.000963762119847759 -3.01714313570296e-27 2.87577050128291e-16 8.52297171436436e-20 4.19610761533408e-42)
(0.0386054754855692 -9.02241040066895e-06 -4.31157838418258e-28 1.66944295260768 0.000600791947291402 3.64952807013724e-27 0 0 0)