/*--------------------------------*- C++ -*----------------------------------*\
| =========                 |                                                 |
| \\      /  F ield         | OpenFOAM: The Open Source CFD Toolbox           |
|  \\    /   O peration     | Version:  3.0.1                                 |
|   \\  /    A nd           | Web:      www.OpenFOAM.org                      |
|    \\/     M anipulation  |                                                 |
\*---------------------------------------------------------------------------*/
FoamFile
{
    version     2.0;
    format      ascii;
    class       volVectorField;
    location    "30000";
    object      grad(p);
}
// * * * * * * * * * * * * * * * * * * * * * * * * * * * * * * * * * * * * * //

dimensions      [0 1 -2 0 0 0 0];

internalField   nonuniform List<vector> 
21000
(
(0.256142926386494 0.0010060519987985 0)
(0.108541386505186 0.00369223421979786 0)
(0.182703262490181 0.0111369572493627 -1.33075509733627e-19)
(0.406202262001574 -0.0245103445068736 1.95300298607455e-19)
(0.292728375614203 -0.0416300242355408 1.17624829768588e-15)
(0.12799538412152 -0.0274427364018272 0)
(0.0694584437153323 -0.0187204842946579 2.60281479132662e-19)
(0.0548218598750417 -0.0161039947518119 -7.77698955684042e-20)
(0.0411235561592391 -0.0121576995141905 2.53032361922455e-15)
(0.0309256563052614 -0.00868541301104376 -2.47391786379617e-15)
(0.0243000529139571 -0.00625240240808206 2.92900690142278e-19)
(0.0184013553072746 -0.00389608932229199 -4.59229791392589e-15)
(0.0140149148254481 -0.00200884057997054 -5.34673359705459e-19)
(0.0111239837803008 -0.000719332206348955 2.09635554511424e-15)
(0.00899953069486581 0.000242502370057897 -2.0111704652066e-15)
(0.00756269546310093 0.000931191706473494 0)
(0.00683476572648586 0.00132440013146963 0)
(0.00701091814567108 0.00133312433945397 -1.80280734631735e-15)
(0.00827542080000617 0.000831154351195326 1.7458996584425e-15)
(0.00994739548058082 7.82836174180356e-05 1.65568701698988e-18)
(0.0117753850227134 -0.000781679875881954 1.60263088360608e-18)
(0.0136168304562845 -0.00166664789788609 1.5806439950502e-15)
(0.015151096060831 -0.0024224630365574 2.98122171652556e-18)
(0.0158883678228578 -0.00282632119270713 -1.43381257574685e-18)
(0.0152470610744584 -0.00264970354271 0)
(0.0139436916886051 -0.00217344244754731 -6.78893086321964e-16)
(0.0124830901253167 -0.00167883056908012 -6.57452376662982e-16)
(0.0104034699965536 -0.00108546623310044 2.47726118106951e-18)
(0.00745237786838092 -0.000415700543073314 0)
(0.00396492444288682 0.000146121039771864 0)
(-0.000182410907674894 0.000726992618496325 2.32908696344099e-18)
(-0.0114163863610745 0.00155269248376471 1.46910561717155e-16)
(-0.0117460211524914 0.00131507230083998 -8.5742644735797e-14)
(-9.35021644220366e-05 0.000891143026179729 -8.71623131982655e-14)
(0.00774026779625658 0.000465105364069777 1.15732145115224e-18)
(0.015705993515619 7.88897594465645e-05 -1.15732145115223e-18)
(0.022303402836595 -0.000207717005569953 1.16028706735981e-18)
(0.0282575643097516 -0.000432116020291296 2.20474668316046e-21)
(0.0334344616934654 -0.000607937046817877 2.60866498307809e-21)
(0.0381380954329602 -0.000751202495332361 -2.33317661576086e-18)
(0.0424104429945324 -0.000869427998447486 -3.3090001140436e-21)
(0.0463661268370074 -0.000968658422901457 1.17138513684339e-18)
(0.0500374350399266 -0.00105227652780904 0)
(0.0534629391753096 -0.00112268574927662 -1.18307820662875e-18)
(0.0566533950099297 -0.00118135059393226 -4.42028135789538e-21)
(0.05961700835996 -0.00122927108893338 2.37964848801724e-18)
(0.0623528017695404 -0.00126712982147933 8.88662344697303e-14)
(0.0648571412545104 -0.00129539079213181 9.01280463351422e-14)
(0.0671205720554539 -0.00131487209743992 -1.20207533180721e-18)
(0.0691364410781634 -0.00132671553862327 -1.2127065452346e-18)
(0.0709032952031246 -0.0013308672784137 1.21270654524813e-18)
(0.0724184036660649 -0.00132697742057001 -6.11944484179005e-19)
(0.0736791060423472 -0.00131574372792123 -9.1382861802699e-14)
(0.0746862742326565 -0.00129767358667705 -9.24877815858131e-14)
(0.0754430648781182 -0.00127324148179998 -6.17732457920168e-19)
(0.0759550092284576 -0.0012429496380663 0)
(0.0762299203772635 -0.00120732486481522 0)
(0.0762777059079386 -0.00116691158259867 9.14012442747956e-30)
(0.0761101242323641 -0.0011222636856278 -9.18340187203152e-30)
(0.0757405066552304 -0.00107393655044731 0)
(0.0751834528540392 -0.00102247886905226 0)
(0.0744545184685688 -0.00096842528686004 3.20674934991258e-19)
(0.0735699076157953 -0.000912289740687258 -3.20674934990091e-19)
(0.072546176815967 -0.000854559736406045 3.23525047521416e-19)
(0.0713999607956596 -0.000795691606808694 -3.23525047521373e-19)
(0.0701477265212294 -0.0007361069632947 9.7293791408209e-14)
(0.0688055572271174 -0.000676190025160764 4.92282545047395e-15)
(0.0673889698683301 -0.00061628603000574 -9.34421781995541e-14)
(0.0659127659881653 -0.000556700414219575 8.22356585819379e-20)
(0.064390915965058 -0.000497698881846913 0)
(0.062836474994244 -0.000439508055371657 0)
(0.0612615257797705 -0.00038231662147777 8.34762362625544e-20)
(0.0596771506836834 -0.000326277032555719 -8.34762362722534e-20)
(0.0580934256522831 -0.000271507464213914 0)
(0.056519430719402 -0.000218093845319139 0)
(0.0549632826543091 -0.000166092195646545 0)
(0.0534321738633927 -0.000115530836220268 0)
(0.0519324341506708 -6.64127445836747e-05 0)
(0.050469575524322 -1.87173645993889e-05 0)
(0.0490483854054667 2.75971839478093e-05 0)
(0.0476729636497016 7.2593317963993e-05 0)
(0.0463468551517367 0.000116354098411563 0)
(0.0450730329477549 0.000158922864527873 0)
(0.0438541060925487 0.000200336902009366 0)
(0.0426922343930046 0.000240367486725673 0)
(0.0415893554215187 0.000279236668547354 1.04187520777181e-13)
(0.0405471155689035 0.000317543189111222 2.08162076752084e-13)
(0.0395674135712419 0.000356896250989015 1.03922322303491e-13)
(0.0386514337457354 0.000397307878596089 0)
(0.0378015627085556 0.000437519756598557 -1.40255840820615e-18)
(0.0370187433958661 0.000477635241726893 1.40255840819094e-18)
(0.036306722079756 0.000517849345361179 1.4082794985077e-18)
(0.0356656093949192 0.000558264361931938 -1.40827949849498e-18)
(0.0351028828933079 0.000599723747430313 0)
(0.0346160240020762 0.000642597825419152 0)
(0.0342213400887614 0.000687964772581757 -1.4191719995412e-18)
(0.0339072724999974 0.000735743603160081 2.84098955429565e-18)
(0.0337116568563663 0.000788078042703221 -1.42181755475712e-18)
(0.0335943374965587 0.000843800957107037 1.42706898639897e-18)
(0.0336479111052661 0.000906690531444689 -1.42706898642433e-18)
(0.0337680857509661 0.000972357194063672 1.43232900082298e-18)
(0.0341869145456005 0.0010547830688032 -2.86732537543731e-18)
(0.0345675941722123 0.00113994873173114 2.87268982486321e-18)
(0.0354918241987104 0.00125786840292955 -1.43769345027071e-18)
(0.0360400137861068 0.00136485496301654 0)
(0.0376759856559325 0.00153961903130601 1.44621419834724e-18)
(0.0377888936042797 0.00164674168209979 2.94841186314094e-21)
(0.0406358623707837 0.00197867185650888 -1.44816435551674e-18)
(0.0435010486856721 0.00312747108481351 2.90732758309185e-18)
(0.0431265158420398 0.00447161572703534 3.72090056678651e-16)
(0.0443433005098753 0.00602899409916154 0)
(0.0441655618028335 0.00735339205446373 7.81036390028364e-16)
(0.0439761244570471 0.00852772870053969 0)
(0.042882333575534 0.0092824960134622 8.3472820089068e-16)
(0.0411503235420069 0.00958713907377015 8.64615919652348e-16)
(0.0376278205198994 0.00895977575929235 1.8055325912711e-15)
(0.0315420787477748 0.00701890903963401 -3.76920671089733e-15)
(0.0234441167325982 0.00395728668537662 0)
(0.0131889970233608 -0.0002171261572865 -2.04128219168191e-15)
(0.000979099160882986 -0.00531696624396497 0)
(-0.0130221431656727 -0.0111224134590075 0)
(-0.0266450197948019 -0.0166086590203561 2.25302988020152e-15)
(-0.0372671191900514 -0.0209101573842263 2.27047789792346e-18)
(-0.0475436826064569 -0.0253162499471484 0)
(-0.0610917003921897 -0.0311937820973881 0)
(-0.0777124553711615 -0.0385049505444251 0)
(-0.102253319652008 -0.049273017908295 0)
(-0.138277564706173 -0.0650819334784918 -5.92448226099109e-19)
(-0.20704507816666 -0.0938479100756705 2.87549520093958e-15)
(-0.320067206619073 -0.136956204782568 -2.95819121510664e-15)
(-0.467439023611466 -0.187071094344295 0)
(-0.663267752274889 -0.243697853981249 2.40976362095539e-18)
(-0.934298914058808 -0.303406803997098 -8.47417485280343e-20)
(-1.27264586997482 -0.336366113050696 -2.66981745655712e-15)
(-1.54072763714694 -0.269104363646792 2.36648994485983e-15)
(-1.24946534173206 -0.0276294126683503 1.19981554872878e-19)
(-0.308773340741377 0.136349560763635 -4.64095006832923e-16)
(0.327898623928298 0.0885491601176569 2.34825053919383e-16)
(0.607952509831686 0.0270090162225663 -5.82768722169575e-20)
(0.523522636459438 0.00346119346910579 0)
(0.256104631410823 0.00491544085187577 0)
(0.109133356634957 0.0177731482920403 0)
(0.183763512828801 0.0443186629136921 0)
(0.401832150125682 -0.0323658817799198 5.40571643637603e-16)
(0.279989845864972 -0.0782648372039585 0)
(0.117625883183733 -0.0505468992198407 0)
(0.0599748424687405 -0.0346764859222572 2.45515187698167e-15)
(0.0449901049753387 -0.030131326679342 0)
(0.0333099885035378 -0.0226424647255679 -7.58286506101268e-20)
(0.0252663333527849 -0.0159856627991451 4.79311479503186e-15)
(0.0203404927402378 -0.0113251878714395 -2.83718037945117e-19)
(0.0161915834609669 -0.00688972557092702 2.2248108209898e-15)
(0.0131564285577531 -0.00334931824705784 -2.1215388866637e-15)
(0.0111312187607351 -0.000940688286833651 2.02799474619787e-15)
(0.00961962685339609 0.000839562890462329 1.94948650810122e-15)
(0.00858832485283449 0.00210769474813111 1.87302031660648e-15)
(0.00806459425600155 0.00284749115465246 -1.80792508668515e-15)
(0.00820123891872853 0.00291544924952251 -1.70788148282652e-18)
(0.00914317504484314 0.00208933073979074 -6.7077711326125e-22)
(0.0103558726670214 0.000789875479741144 1.6043612772425e-18)
(0.0116662098492595 -0.000729927006334521 1.55298034677422e-18)
(0.0129935988392397 -0.00233554121406318 -1.53774321009873e-15)
(0.0141192336072969 -0.00377848783144632 1.44389075095701e-18)
(0.0146675466620906 -0.00469324789792864 0)
(0.0141122128026126 -0.00467200825185715 -1.36853704044949e-15)
(0.013007822584477 -0.0041129852338467 -6.58057403770579e-16)
(0.0117378631960338 -0.00349801931115664 -2.48082189406847e-18)
(0.00986247477130655 -0.00271529380666456 -6.96642565414523e-14)
(0.00709465401660397 -0.00178387169550585 1.10644196571753e-15)
(0.00374615055441316 -0.000986197948194337 7.33588223970503e-14)
(-0.000299459470868426 -7.89203961089986e-05 -2.25829222166565e-18)
(-0.0115311624840733 0.000627657303600737 -2.24168444594108e-18)
(-0.0117283231876408 0.000661481961696101 8.45088521008818e-14)
(-2.21637518308311e-05 0.00121945652649176 8.31539508766318e-14)
(0.00777951213014818 0.00104778602686364 0)
(0.0157452209323086 0.000935276060001374 0)
(0.022339296718533 0.000838778303328629 0)
(0.0282904976685746 0.000777830753095029 0)
(0.0334632731029912 0.000708736978122704 -8.20967484051448e-30)
(0.0381634623606266 0.000639020713233686 1.1325649046312e-18)
(0.0424324785950135 0.000559667392665608 -1.13256490464023e-18)
(0.0463852221746784 0.000473945126819042 1.13928244036612e-18)
(0.0500537575047556 0.000380121732282768 -1.13928244037933e-18)
(0.0534766804493335 0.000279576409642948 0)
(0.05666467556183 0.000172285896730169 0)
(0.0596259523345211 5.8991462911273e-05 0)
(0.0623595196883427 -5.98213020154701e-05 -8.70372675205251e-14)
(0.0648616931966014 -0.000183760359998547 -8.65110914636803e-14)
(0.0671229436452607 -0.000312761771992229 0)
(0.0691367526090879 -0.000442941842990415 0)
(0.0709018412914795 -0.000572243061617173 7.58478131034502e-14)
(0.0724154014412503 -0.000701901530612947 7.6841585914587e-14)
(0.0736747032728966 -0.000830642446613461 8.92650807295023e-14)
(0.0746806634840047 -0.000957318506162184 8.90118801408305e-14)
(0.07543645165669 -0.00108083129640029 5.98947988036824e-19)
(0.0759476016654433 -0.0012001193709703 0)
(0.0762219248814512 -0.00131419732421232 0)
(0.0762693232413326 -0.00142217270126121 -8.86203556966322e-30)
(0.0761015459773954 -0.00152325965759293 8.90399629525566e-30)
(0.075731912173489 -0.00161678992467148 0)
(0.0751750068070628 -0.00170221863542928 -6.19024113886314e-19)
(0.0744463689201565 -0.00177912746355096 9.2994381857487e-19)
(0.0735621847387641 -0.00184722371704589 -3.10919704686351e-19)
(0.0725389921742343 -0.00190633645298655 0)
(0.0713934071490849 -0.00195640958783503 0)
(0.0701418781011597 -0.00199749341577315 -9.44988825033675e-14)
(0.0688004704145603 -0.00202973376794072 -4.48947267102257e-15)
(0.0673846841980404 -0.00205336059331893 9.04807996270424e-14)
(0.06590930540305 -0.00206867532098297 -9.30054470506754e-30)
(0.0643882902452285 -0.00207603858757662 0)
(0.062834681309906 -0.0020758576711989 0)
(0.0612605502861159 -0.00206857438792955 9.40557106052531e-30)
(0.0596769701079013 -0.00205465412678178 0)
(0.0580940088584024 -0.0020345756095107 0)
(0.0565207401878686 -0.00200882109323023 0)
(0.0549652758601581 -0.00197786864904939 -3.28078367254417e-19)
(0.0534348045193277 -0.00194218426187327 3.28078367254416e-19)
(0.0519356533700984 -0.00190221710124098 0)
(0.0504733327930704 -0.0018583914776523 6.62050189449871e-19)
(0.0490526295354028 -0.00181110633312278 -6.62050189448701e-19)
(0.0476776436745579 -0.00176072361589615 -6.65708182519691e-19)
(0.0463519152393821 -0.00170760361883464 6.65708182522556e-19)
(0.0450784102328715 -0.00165223700231902 6.69165750514617e-19)
(0.0438597085763053 -0.00159507492122248 -6.69165750517397e-19)
(0.0426979870922577 -0.00153397246011628 0)
(0.041595265130083 -0.00146882502410237 -1.00312743761049e-13)
(0.0405533256826764 -0.00140207147311771 -2.01782763293983e-13)
(0.0395740078908264 -0.00133428462402789 -1.01509959476686e-13)
(0.0386582031274348 -0.00126544684978256 2.92383003760959e-21)
(0.0378083062169476 -0.00119541967419133 -1.35700816311608e-18)
(0.0370253962202264 -0.00112404322717633 -1.36266804921381e-18)
(0.0363132214309882 -0.00105133296294979 1.36266804923945e-18)
(0.0356719331179421 -0.000976998987369007 0)
(0.0351090483439823 -0.000900809337295193 0)
(0.0346220126894228 -0.000821768142135929 0)
(0.0342271412649943 -0.000739979203313666 0)
(0.0339128318677889 -0.000653473572771685 0)
(0.0337169991333212 -0.000563317602123736 0)
(0.0335992517308784 -0.000464908713235019 0)
(0.0336523295538814 -0.000362617617215486 0)
(0.0337718918427455 -0.000246738333432794 0)
(0.0341907871987874 -0.000129131887613377 0)
(0.0345709941595008 2.17664455003142e-05 0)
(0.0354960041704205 0.000167491472522377 0)
(0.0360436164303501 0.000381948245343796 0)
(0.0376829999708807 0.000558437137273022 0)
(0.0378002229711342 0.000868304925580027 -2.81010256472786e-18)
(0.040739347752082 0.00104595687262846 2.52983186045433e-17)
(0.0437394406881502 0.00291787925035738 0)
(0.0433088936394373 0.00505456755080028 0)
(0.044241830847367 0.00761679171765663 7.39566750885046e-16)
(0.0436501365060982 0.00980973502856178 -7.57226368364286e-16)
(0.0429505168739188 0.0117230475493439 -7.80060878843445e-16)
(0.0413692618340242 0.0128916358246411 8.0766822466249e-16)
(0.0392543258542805 0.0132263223223681 0)
(0.0356912855280424 0.0119307290100405 -1.75173803483012e-15)
(0.0302309762296674 0.00842094349556347 -5.06181900331488e-20)
(0.0234375919971203 0.00307716972718498 1.85942878019843e-18)
(0.0151898386325595 -0.00408613785803814 -3.86288144717356e-18)
(0.00560360719371189 -0.0127552110186755 4.00479018403359e-18)
(-0.00529484174045463 -0.0225076650206406 -2.07093105649003e-18)
(-0.0158894301645369 -0.031646604778928 -2.18482025987444e-15)
(-0.0239830693281866 -0.0390107765035518 2.25003541445002e-15)
(-0.0314539995014768 -0.0470152035158623 1.13169977062645e-18)
(-0.0411131217167057 -0.0578447577079243 -1.1734170486542e-18)
(-0.0526644300105188 -0.0715476084393024 2.48427107394695e-15)
(-0.0696370680464205 -0.0917927900933555 2.57754546492052e-15)
(-0.0944516185605204 -0.121828643276577 -2.67949941919526e-15)
(-0.143225368376145 -0.175341654851672 0)
(-0.227639868677961 -0.253443016970436 0)
(-0.345161056754484 -0.34269666595851 0)
(-0.514594292195236 -0.440676642061911 2.87716206353567e-15)
(-0.771624388444853 -0.533808923487538 4.33936335675267e-20)
(-1.13354319844353 -0.550098582518845 0)
(-1.4904136188763 -0.330994815703973 -1.14612024546472e-15)
(-1.31920792220071 0.240284839547754 0)
(-0.381704915201476 0.546673489182363 4.49939162615351e-16)
(0.302857706499666 0.32808409332638 -1.66696924861605e-19)
(0.602818485962512 0.110597920782355 5.65329334534359e-20)
(0.522123019803864 0.0174090102814463 0)
(0.256169594211596 0.0180714708712237 0)
(0.110958117514495 0.0437938610887577 -6.165800623053e-20)
(0.187788393743504 0.10660806986302 -6.33648815017958e-20)
(0.409457165823909 0.0254506759918599 -3.66855379948073e-21)
(0.285828888234304 -0.0594378605171343 1.32980491075439e-19)
(0.123890943132482 -0.0407108471582606 -1.15772976688227e-15)
(0.0647231437337872 -0.0281077754542933 -2.37825049794091e-15)
(0.0482794626306353 -0.0261356215762186 -7.29749973938426e-20)
(0.0356840189189068 -0.0202682801126436 -2.01450574068127e-19)
(0.0268198386955934 -0.0146218661467665 -2.3215649612096e-15)
(0.0213551065998542 -0.0105502658108905 0)
(0.0168047464816526 -0.00654809458022116 -2.15501094985532e-15)
(0.0134883328781341 -0.00324864679462612 5.28662947718426e-19)
(0.0112816487324677 -0.000975848754750178 -4.33179874483754e-21)
(0.00965332831337433 0.000715452213974299 1.88692386767232e-15)
(0.00852382483119095 0.00191174665621081 -1.81561590298924e-15)
(0.00792084652463232 0.00261384714072751 1.75171645162818e-15)
(0.007987314794569 0.00268164857145797 -1.69263878336573e-15)
(0.00888019510963314 0.00187830168834513 -3.20800495944544e-18)
(0.0100142542214077 0.000526031486157531 1.55460638060723e-18)
(0.0111969728335687 -0.00114126307180519 1.54040643869104e-15)
(0.0123424282452129 -0.00300918095474645 -1.45300403139824e-18)
(0.0132389919996289 -0.00485895165743669 1.43626500979411e-15)
(0.0135247668338779 -0.00636068876052944 1.34944753350402e-18)
(0.0127106928239832 -0.00706019519015618 1.321278827967e-15)
(0.0114496231121676 -0.00715986325989962 6.3787387919215e-16)
(0.0101361373213625 -0.00712451390973735 -1.07169043007579e-13)
(0.00833674137770917 -0.00684708376304995 -3.96125334028316e-14)
(0.00576606089264391 -0.0062548816291675 -3.72203975742739e-15)
(0.00273437420832893 -0.00554562191464056 -6.98060914579453e-14)
(-0.00100504617119146 -0.00464789996466738 2.78089384690255e-16)
(-0.011910171561452 -0.00419438878929221 0)
(-0.0116304193123049 -0.00205113320266007 -1.73906872119e-17)
(0.000106090236178815 -0.000397223237776777 0)
(0.00783571292101444 -0.000168575751934158 -1.05476704737742e-13)
(0.0157968003548621 8.11068433282708e-05 -1.07272214866009e-13)
(0.0223809139880596 0.000166054555559918 -1.09080421418274e-18)
(0.0283248119572873 0.000194577633609653 2.18368508157162e-18)
(0.0334894350475409 0.000127307574207229 2.45530115928365e-21)
(0.0381836600997812 1.05589823142586e-05 -2.19347179862983e-18)
(0.0424474222495958 -0.000155890420079865 -3.1120621943067e-21)
(0.0463959769131273 -0.000354498987765254 1.10124769225646e-18)
(0.0500608207454094 -0.000582366402514542 -1.10831948927054e-18)
(0.0534805377636096 -0.000832603638945538 1.10831948926843e-18)
(0.0566656032320639 -0.00110277588090198 0)
(0.0596242005821455 -0.001389253856412 0)
(0.0623552464837647 -0.00168772037620979 0)
(0.0648550257798048 -0.00199827275493762 0)
(0.0671144402441766 -0.00232161182839537 -1.13501337062403e-18)
(0.069127087331773 -0.00264430205841364 1.13501337060267e-18)
(0.0708910014886392 -0.00296079237023412 -7.41738355372109e-14)
(0.072403369482305 -0.00327591039989189 -7.38710087323036e-14)
(0.0736617974160944 -0.00358539948291309 0)
(0.0746671611115845 -0.00388611485148266 0)
(0.0754226212295472 -0.00417521187502992 0)
(0.0759337065402518 -0.0044500375168004 0)
(0.0762082170084624 -0.0047082047469452 0)
(0.0762560389128619 -0.00494762638723296 -5.91868427155233e-19)
(0.0760889020311672 -0.00516654013634744 5.9186842716037e-19)
(0.0757201029414784 -0.00536352538330321 0)
(0.0751642018709374 -0.00553750760151405 6.00188776176718e-19)
(0.0744367116487081 -0.0056877554175226 -2.98730043307088e-19)
(0.0735537916525126 -0.00581386836144073 -3.01458732869615e-19)
(0.0725319530607759 -0.00591575782339338 0)
(0.0713877858167999 -0.00599362161104056 -3.0544478854065e-19)
(0.0701377137004025 -0.00604791541812801 4.58809957199222e-19)
(0.068797779216399 -0.00607931999891239 -1.53365168659572e-19)
(0.0673834617088766 -0.00608870781177036 0)
(0.0659095287052455 -0.00607710810946372 -3.88043054429726e-20)
(0.064389920456044 -0.00604567376510478 3.88043054429726e-20)
(0.0628376661152012 -0.00599564858792854 3.90957985281666e-20)
(0.0612648264039117 -0.00592833662322217 -3.90957985281658e-20)
(0.0596824656367455 -0.00584507475136266 0)
(0.0581006455373521 -0.00574720796051642 -1.58024072074342e-19)
(0.0565284354374171 -0.00563606621651691 4.75108321581343e-19)
(0.0549739446530299 -0.00551294641612348 1.00761321748012e-21)
(0.0534443609517569 -0.00537909461692336 9.79577595070753e-22)
(0.0519460122209064 -0.00523569568081127 -3.19071440320053e-19)
(0.0504844106405499 -0.00508385591343307 0)
(0.0490643461604253 -0.00492460187303407 0)
(0.047689919532334 -0.00475886795483736 6.45444562416974e-19)
(0.0463646602431303 -0.00458762806664493 1.6996286069633e-21)
(0.0450915303785801 -0.00441057932073173 -6.47144191021192e-19)
(0.0438734117815604 -0.00422750178222088 0)
(0.0427125198494601 -0.00404139094470192 0)
(0.0416103129490581 -0.0038535921064671 0)
(0.0405683608519478 -0.00366285636590954 0)
(0.0395888202513537 -0.00347025493106917 0)
(0.038672953637256 -0.00327557537397048 -1.31570520914557e-18)
(0.0378231600108745 -0.00307760934117318 -2.77303120191682e-21)
(0.0370403520124279 -0.00287586200720165 1.31847824033433e-18)
(0.0363282926786962 -0.00267016357390649 1.32385731341678e-18)
(0.0356870915135359 -0.00245930482308321 -2.65033105066889e-18)
(0.0351243130233462 -0.00224356702966005 2.65552263791976e-18)
(0.0346373432325677 -0.00202044603666516 -2.66063726206279e-18)
(0.0342426486681408 -0.00179115945352128 1.33158836146346e-18)
(0.0339284138518313 -0.00154989369416696 1.33658637018038e-18)
(0.0337329488144689 -0.00130156319217093 2.47315453199265e-21)
(0.0336153407790225 -0.00103242158779954 -1.3390595246993e-18)
(0.0336692125027651 -0.000753781241220009 0)
(0.0337883607096271 -0.000433538999219447 0)
(0.0342089587817614 -0.000125391000390572 0)
(0.0345884815416655 0.000266232932066307 0)
(0.0355180276374208 0.00060783629046174 -2.70823543270745e-18)
(0.0360630380097904 0.00113451454495896 1.33586045440131e-13)
(0.0377126262596052 0.00147190498762166 1.31720018278154e-13)
(0.0378129897488835 0.00220434920311927 -2.71905326063603e-18)
(0.0407918142603042 0.00225750517915564 -2.45343982818922e-17)
(0.0438358779187981 0.00378053788084283 2.72675284947488e-18)
(0.0435660164575747 0.00469856933548439 -2.75767978515111e-18)
(0.0447682806290578 0.00628482587976439 -7.14256102455625e-16)
(0.0445718168893594 0.00743892259367262 2.87134594808053e-18)
(0.0443725384095934 0.00836503537044363 7.56250498400161e-16)
(0.043407013291993 0.00851582719290264 -1.56592575667897e-15)
(0.0420226810401272 0.00777352139255057 -3.17644563819698e-18)
(0.0392689186999947 0.00536682332041009 3.31935354495449e-18)
(0.0345629947732738 0.000933035167201533 -5.16781382114627e-18)
(0.0283326178078011 -0.00500276585785806 1.80001120216933e-18)
(0.020390103396433 -0.0124163505035031 -1.91486444171501e-15)
(0.0108244497250229 -0.0209741337005542 -1.98893750918086e-15)
(-0.000379044061906751 -0.0301462207962919 2.05391460190286e-15)
(-0.0115055001504069 -0.0383583930710016 2.11698992812094e-15)
(-0.0200132432947253 -0.0450979360828527 -4.35773411496106e-15)
(-0.0276325823069129 -0.0530745330805985 -1.10260016156876e-18)
(-0.0374146969110623 -0.063994578625352 -2.32499069406154e-15)
(-0.0490673349960084 -0.0779762715181998 -4.81299460344432e-15)
(-0.0664671642535348 -0.098422195546559 -2.49711295381401e-15)
(-0.0923164680692794 -0.128651878379051 0)
(-0.144963329497501 -0.17947459418407 -6.5290959698324e-19)
(-0.238864821067478 -0.247545732707444 3.47231655362607e-19)
(-0.371736557917421 -0.318348143500592 3.4622579280851e-19)
(-0.563445800927784 -0.385906300504462 2.77900395084096e-15)
(-0.852190630429352 -0.424823504839175 1.21200722494025e-19)
(-1.25366889778124 -0.344685489586927 -2.49520366655e-15)
(-1.64480806548206 0.0274899680359506 -1.10938809890687e-15)
(-1.47149863021612 0.755278852490158 -9.56763513154561e-16)
(-0.481862923290332 1.05265427742866 4.39174449114133e-16)
(0.258689027082186 0.653692597805371 1.07054225895179e-19)
(0.589631490985095 0.260338469659174 2.85988845648191e-17)
(0.518111339787929 0.0471472204256829 0)
(0.255930681325468 0.0433607588433586 0)
(0.114411813519537 0.0761910503437354 -1.19613511890608e-19)
(0.193725076600991 0.179643307245274 -2.44962884294144e-16)
(0.418209746551513 0.0982403358461285 0)
(0.291503852642267 -0.0357114197481428 0)
(0.126142117899644 -0.0380893573186051 2.24383435670803e-15)
(0.0681406781355481 -0.0234484086970358 2.30444273050843e-15)
(0.0506221868121301 -0.0232336290410714 0)
(0.0373508000414188 -0.0186754549254477 -2.2998178705545e-15)
(0.0278615354968484 -0.0138120742706475 -2.74728625657789e-19)
(0.0219893130145672 -0.0101885719891297 2.65342372817083e-19)
(0.0172002980654802 -0.0064469899689811 2.08696424056059e-15)
(0.0137431693630887 -0.00323542835076947 1.99188301420592e-15)
(0.0114448746090568 -0.000993438888897497 -1.90522375960343e-15)
(0.00976332596625053 0.000688859997074088 -1.82809795384252e-15)
(0.00857480959565978 0.00186572368522612 0)
(0.00790594154734614 0.00254919511223369 1.65773541532722e-18)
(0.00789017691192969 0.00260473259669672 -3.2362502009064e-18)
(0.0086700830294166 0.00175239221699193 -6.13642867626208e-22)
(0.00961290920103407 0.00021759100190756 1.50637375970925e-18)
(0.0105260252690189 -0.00176877885296325 -1.49119488917435e-15)
(0.0113284786246862 -0.00410694775968923 1.43975609295642e-15)
(0.0118365231740764 -0.00658979179652908 -1.38646392600111e-15)
(0.0117249773747175 -0.00890947138763709 -1.33973773681402e-15)
(0.0105833625775096 -0.0105334230350879 2.51207678447575e-18)
(0.00917153396746224 -0.0114392432956256 2.18183087655418e-21)
(0.00784715618488544 -0.0121219548657551 1.06063471773292e-13)
(0.00619120484833421 -0.0124711045859183 1.03077723188881e-13)
(0.00391995615709518 -0.012321859896635 -5.60628197576135e-16)
(0.00130508106247786 -0.0118256746540527 -2.1530017543192e-18)
(-0.00206446296851677 -0.0112452371707458 -2.71756017905761e-16)
(-0.0122976729506871 -0.01098009510733 -1.34951072490404e-16)
(-0.0112895984860999 -0.00491058758978338 -1.89682402223817e-17)
(0.000341638408587269 -0.00189081647368176 2.10865898514001e-18)
(0.00795838892336171 -0.000896783709241545 1.03946411222975e-13)
(0.0158965918289851 -6.19611658492217e-05 1.0233252487096e-13)
(0.0224479689519345 0.000260546300358844 0)
(0.0283695236293664 0.000349204994565562 2.11932142021181e-18)
(0.0335151720184659 0.000212820803214836 -2.11932142022279e-18)
(0.038196244463442 -4.51025687274608e-05 0)
(0.0424494316082504 -0.000406535139420516 0)
(0.0463898475933488 -0.000835613792887814 0)
(0.0500478110039669 -0.00132238237405513 0)
(0.0534617020428208 -0.00185304569374015 0)
(0.0566416397213203 -0.00242122411000069 0)
(0.059595959222806 -0.00301739906305379 0)
(0.0623232015232247 -0.00363630395128237 0)
(0.0648191088219727 -0.00427595487237071 -1.0957242399187e-18)
(0.0670755781278122 -0.00493094938397924 1.09572423992845e-18)
(0.0690868002017257 -0.00558532977235251 0)
(0.070849588979569 -0.00623152218568751 0)
(0.0723609989740383 -0.00687044795976995 -1.11557914484082e-18)
(0.0736191599392047 -0.00749490932561762 -5.23207896771141e-21)
(0.0746248615919731 -0.00809905603702096 1.12081122379692e-18)
(0.0753812351423492 -0.00867747780579266 -5.65736043175636e-19)
(0.0758937753063568 -0.00922523701918817 5.65736043169702e-19)
(0.0761702377485545 -0.0097379592276785 0)
(0.0762204572600395 -0.0102118853490604 0)
(0.0760561065391465 -0.0106439053825378 0)
(0.0756904213842864 -0.0110315760914556 0)
(0.0751378994140893 -0.0113731177956116 5.81910362586943e-19)
(0.0744139906976923 -0.0116673977004038 -5.81910362588005e-19)
(0.0735347933148629 -0.0119138981496682 0)
(0.0725167599896343 -0.0121126737957846 0)
(0.0713764261323744 -0.0122642988710387 2.96140449079364e-19)
(0.0701301657780469 -0.0123698099015061 -2.96140449078866e-19)
(0.0687939771037066 -0.0124306426885751 0)
(0.0673833009196201 -0.0124485689750099 0)
(0.0659128721682489 -0.0124256318757363 0)
(0.0643966044192264 -0.0123640847922588 0)
(0.0628475059347256 -0.0122663323403101 0)
(0.061277621984374 -0.0121348751983832 0)
(0.0596980064236134 -0.0119722609222626 0)
(0.0581187151543309 -0.0117810401534046 0)
(0.0565488157884225 -0.0115637259935098 -3.07424648205762e-19)
(0.0549964195462402 -0.0113227616287588 6.15826438810911e-19)
(0.0534687190777161 -0.0110604897166229 -3.08401790604532e-19)
(0.0519720499872402 -0.0107791328670717 0)
(0.0505119342732425 -0.0104807649770416 -6.22345323738779e-19)
(0.0490931728837899 -0.0101673086607935 6.2234532373765e-19)
(0.0477198683381886 -0.00984055574354584 0)
(0.0463956910606216 -0.0095015888095344 0)
(0.0451237320526349 -0.00915215638193205 0)
(0.0439062071882518 -0.00879442293836226 0)
(0.0427451259098833 -0.00843133352687003 -6.32116808118892e-19)
(0.0416429790797118 -0.00806312544192887 6.32116808125389e-19)
(0.0406015809189756 -0.00768750451721199 1.27007869830561e-18)
(0.0396226486407542 -0.00730395731169223 2.81596294727487e-21)
(0.0387073013316697 -0.00691244781908483 -1.27289466126614e-18)
(0.0378579638328785 -0.00651354885676383 -1.27833611854343e-18)
(0.0370755991572835 -0.00610649164740173 1.27833611852968e-18)