/*--------------------------------*- C++ -*----------------------------------*\
| =========                 |                                                 |
| \\      /  F ield         | OpenFOAM: The Open Source CFD Toolbox           |
|  \\    /   O peration     | Version:  3.0.1                                 |
|   \\  /    A nd           | Web:      www.OpenFOAM.org                      |
|    \\/     M anipulation  |                                                 |
\*---------------------------------------------------------------------------*/
FoamFile
{
    version     2.0;
    format      ascii;
    class       volVectorField;
    location    "30000";
    object      grad(k);
}
// * * * * * * * * * * * * * * * * * * * * * * * * * * * * * * * * * * * * * //

dimensions      [0 1 -2 0 0 0 0];

internalField   nonuniform List<vector> 
21000
(
(0.000554977645118028 0.123743069200259 0)
(0.00110812157561118 0.122628317885802 0)
(0.00495495454990993 0.0748548260583553 -8.40800354298765e-24)
(0.00410433499974643 0.0241753912631648 -4.87052300459953e-20)
(0.00315826337300591 0.00870534692661268 1.2043996126945e-30)
(0.001891629852194 0.00385241137048468 0)
(0.00118422315155791 0.0020199307457131 -1.89897435170176e-20)
(0.000880813019182655 0.00127103373383121 -7.02407078336126e-25)
(0.000580811802760325 0.000769839638743337 7.78552935712063e-21)
(0.000406746479353945 0.000509940566620045 -5.25574411704051e-21)
(0.000300005807234041 0.000366047646584764 3.55788917349404e-25)
(0.000220945698936935 0.000269540331271152 -2.79842545556619e-21)
(0.000175228331434667 0.000215572463711359 -7.79215084717352e-25)
(0.000156883499891973 0.000193989809871054 1.08425251061496e-24)
(0.000157208102589985 0.000194819332498188 -1.97588388877671e-21)
(0.000176591574120502 0.000218514691209511 0)
(0.000220039568213849 0.00027156388999372 0)
(0.000294632070509129 0.000363345906087364 4.19496402903817e-24)
(0.000406022402481968 0.000503074649811176 -9.79961158436251e-24)
(0.000544789711003604 0.000684290579042316 5.55655978379159e-24)
(0.000700105938384577 0.000902882937564001 9.41507333135474e-24)
(0.000860799708889522 0.00115585980463082 1.12667105292303e-20)
(0.00100680556913791 0.00143070459123219 2.32972543823684e-23)
(0.00111392439530507 0.00170709321450445 -1.20466876751851e-23)
(0.00116506718534369 0.00196696094584095 0)
(0.00116803976138537 0.00222484610688887 -6.67968718040126e-31)
(0.00113473800000944 0.00249565748488187 -2.47685456372688e-23)
(0.001048528709096 0.00274523800359257 2.39761331394131e-23)
(0.00090544952645847 0.0029416715086123 0)
(0.000713787121862414 0.00307059040454986 0)
(0.000489503463122738 0.00314816877534689 1.53098242007676e-23)
(0.000282960919911602 0.00321657342988723 -6.12747198416793e-24)
(0.000153958644605427 0.00389505221506487 -2.24108185046997e-18)
(0.000166874556527238 0.00606877613729906 -3.51818239303822e-18)
(0.000170176521624459 0.00844051568343113 4.39333024923496e-23)
(0.000165022366191396 0.0107942049783515 -4.39333024923492e-23)
(0.000152846663810047 0.0130337628433864 6.87344736726083e-23)
(0.000141217808231294 0.015194019907884 1.1018270750027e-23)
(0.000129429740790928 0.0172631664893673 1.00985275511749e-23)
(0.000118900203366408 0.0192672767728222 -1.88979522887087e-22)
(0.000108771986111823 0.0212092952353493 -8.4867426283469e-24)
(9.90826584477103e-05 0.0230983882014196 1.07614993540806e-22)
(8.94099513995445e-05 0.0249344244516968 0)
(7.96730971691049e-05 0.0267176486772506 -1.28538150492071e-22)
(6.97405674014314e-05 0.0284452354131206 -5.44138493235597e-24)
(5.9633062580107e-05 0.0301151185734798 2.72611835517726e-22)
(4.93980240923314e-05 0.031726352871147 1.82458218199974e-17)
(3.90858917801323e-05 0.0332802804665923 1.92477058637396e-17)
(2.86212142184472e-05 0.0347734039645626 -1.45536101780265e-22)
(1.77610150379303e-05 0.0361905927665976 -1.49154993518783e-22)
(6.85719638932734e-06 0.037499589281283 1.49154993520447e-22)
(-3.56741703554373e-06 0.0387018186685892 -7.4705836379911e-23)
(-1.35054875800578e-05 0.0397930606902942 -2.29091634384641e-17)
(-2.28882555547001e-05 0.040769739896155 -2.35534174471085e-17)
(-3.16054319287384e-05 0.0416297090694097 -7.32860575281084e-23)
(-3.95652327643622e-05 0.0423721094324076 0)
(-4.66955029479851e-05 0.0429973443817285 0)
(-5.29450702774786e-05 0.0435070039029784 2.44182742547002e-33)
(-5.82838708605691e-05 0.0439037617089551 -2.46410385590944e-33)
(-6.27022445688143e-05 0.0441912528051171 0)
(-6.62095455422604e-05 0.0443739372558296 0)
(-6.88321716463374e-05 0.0444569556321162 2.83171870997693e-23)
(-7.06112251452292e-05 0.0444459836187038 -2.83171870996662e-23)
(-7.15999468663093e-05 0.044347088528293 2.55432430473928e-23)
(-7.18610424599008e-05 0.0441665931532252 -2.55432430473894e-23)
(-7.14640531083605e-05 0.0439109495315584 2.53198790895748e-17)
(-7.04828645868127e-05 0.0435866253451783 1.23835698403405e-18)
(-6.8993417502242e-05 0.0432000032178617 -2.37022436755504e-17)
(-6.70716782336116e-05 0.0427572952928683 5.00674330343332e-24)
(-6.47919022183641e-05 0.0422644715134988 0)
(-6.22252095832169e-05 0.0417272029063439 0)
(-5.94384491239123e-05 0.0411508168975421 3.77042978126222e-24)
(-5.64933463355579e-05 0.0405402660271644 -3.77042978357192e-24)
(-5.3445946420748e-05 0.0399001077880745 0)
(-5.03462659752859e-05 0.0392344925047881 0)
(-4.72381500992972e-05 0.0385471596688882 0)
(-4.41593053012291e-05 0.0378414423315196 0)
(-4.11415032281215e-05 0.0371202741606487 0)
(-3.82108411990079e-05 0.036386203547344 0)
(-3.5388123202777e-05 0.0356414010820687 0)
(-3.26892530312928e-05 0.0348876881367999 0)
(-3.0125831280219e-05 0.0341265362533676 0)
(-2.77054441886366e-05 0.0333591037821493 0)
(-2.54324601650548e-05 0.0325862218380446 0)
(-2.3308308039573e-05 0.0318084181313991 0)
(-2.1331545274148e-05 0.0310258967277564 1.79006312938831e-17)
(-1.94987980852668e-05 0.0302387037675709 3.48832064443053e-17)
(-1.78059784640352e-05 0.0294463332631612 1.69798000809679e-17)
(-1.62451744584702e-05 0.0286482202396561 0)
(-1.48041680014991e-05 0.0278433035179649 -1.38741464109414e-23)
(-1.26065519439904e-05 0.0270306034868806 1.38741464107909e-23)
(-4.41747825246008e-06 0.0262183162884529 1.25458764406214e-23)
(2.00546274629814e-06 0.0254656887765719 -1.25458764405081e-23)
(1.3068849500109e-06 0.0246884423867814 0)
(3.25465268256832e-07 0.0238834715965761 0)
(-7.95531712219416e-07 0.023043549628651 -1.27676404289064e-23)
(-2.11539004338353e-06 0.0221679009650945 2.53702312756666e-23)
(-3.56614114653381e-06 0.0212432147917031 -1.26025908467839e-23)
(-5.28704143664351e-06 0.0202733673826456 1.19118368693438e-23)
(-7.0161293589266e-06 0.019231396679642 -1.19118368695555e-23)
(-8.99491644316787e-06 0.0181675268251581 1.0662603222179e-23)
(-1.0856887350591e-05 0.0170365087899108 -2.04781169318539e-23)
(-1.33691206709204e-05 0.0158575169288554 1.85879253269104e-23)
(-1.52443584808209e-05 0.0145259694222054 -8.77241161737381e-24)
(-1.73135588891086e-05 0.0131462314278768 0)
(-1.10396081075275e-05 0.0115331490572018 5.37079148345625e-24)
(2.32580254576373e-06 0.00996422232439307 1.81466647027651e-25)
(-8.09676912269926e-05 0.00826969340282669 -1.02632529048065e-21)
(-0.000720448703659318 0.00894022450274519 1.51239740793461e-23)
(-0.00162395732522527 0.0101856672759876 -1.5224030386514e-23)
(-0.00281168081361596 0.0118956760995486 0)
(-0.00421724056069618 0.0135376385786077 5.60219420257646e-20)
(-0.00583115378279317 0.0151792794540034 0)
(-0.00763687386496211 0.0168418013378227 1.02409299962403e-23)
(-0.00976367879059647 0.0187683384162624 -1.06254396190652e-23)
(-0.0123303773381686 0.0211082218919488 1.93390548231107e-19)
(-0.0151499929085666 0.0237220739356711 -2.22771041417996e-19)
(-0.0180992507192178 0.0265294377231488 0)
(-0.0211792627774891 0.0295907645761791 -1.56424534493735e-30)
(-0.0243482169187996 0.0329102839680859 0)
(-0.0275549224732196 0.0364830237079513 0)
(-0.0303609499928019 0.0397995245455658 -1.23201262947464e-22)
(-0.0327226601910983 0.0426214896648466 1.27137441577697e-22)
(-0.0351611050602065 0.045383564082654 0)
(-0.0380179070168421 0.0484799032863326 0)
(-0.0414626624774582 0.052092886578279 0)
(-0.0461209371807273 0.0569528893011568 0)
(-0.0525515855093117 0.0637373507329766 6.55965595017418e-19)
(-0.0636857632063745 0.0760157604844503 2.28009324508978e-30)
(-0.0802337749170563 0.0958460130923574 -2.38055808184444e-30)
(-0.102718366014057 0.125765805652172 0)
(-0.132881808142333 0.171510482274836 -1.73410041111476e-18)
(-0.173504834932362 0.244359561707912 -8.37575473205157e-23)
(-0.221121793044639 0.356671894687867 8.34628154500375e-23)
(-0.250199394591708 0.495817969894521 2.20428728166714e-18)
(-0.188470421986259 0.523121942485445 2.32229446640115e-22)
(-0.0843126888026553 0.374578197075718 -7.54361703558493e-19)
(-0.0263054159921571 0.22329180208069 2.53063287474421e-23)
(-0.00452935292238694 0.132888031054572 -2.52741252289391e-23)
(-0.000267767220574158 0.121171460495718 0)
(-0.000497572807550791 0.615843253317658 0)
(0.00363766111297068 0.553546587175658 0)
(0.0281026242851453 0.381005868613615 0)
(0.0321652592542764 0.177916422630782 4.72281040692862e-20)
(0.0113389751285472 0.0358594547125489 0)
(0.00020774266424113 0.000944709678898716 0)
(0.000447418719916383 0.000753716193203693 1.84010050083049e-20)
(0.000418982207270662 0.000605139885542098 0)
(0.000114083415957623 0.00016333580275645 1.64633173149966e-21)
(0.000119559047339737 0.000151302714910361 1.17395246964692e-20)
(0.000161461746252519 0.000193664623021581 -1.94715915854272e-25)
(0.000210490933156167 0.000250076415345181 2.71101050607085e-21)
(0.000252122404685625 0.000303693639613831 -5.27128666949908e-21)
(0.000298062270090083 0.000364981880422328 5.63811957403087e-21)
(0.000359691639461461 0.000447051367615501 1.91514617634216e-21)
(0.000446082675605969 0.000561163985552078 7.78247087300822e-21)
(0.000574805667796041 0.000729738180818142 -9.95560044493663e-21)
(0.00076465696394556 0.000977055331589762 -4.28557888115012e-24)
(0.00103863852109214 0.00133317012823066 -1.70036207291429e-24)
(0.00141021036641993 0.00182718695187988 5.67181562979561e-24)
(0.00187779337368712 0.00248526837750646 1.03900565842536e-23)
(0.00244022793024142 0.00334271001673392 -1.09612024917669e-20)
(0.00307424223176376 0.00442513988102462 1.2863133123547e-23)
(0.00372488390733836 0.00573763998989791 0)
(0.0043043400831905 0.00725989451543145 -8.40463028093278e-20)
(0.00472523328981813 0.00895843437028456 -4.95775924659204e-20)
(0.00496816499756968 0.0108318809271127 -6.30050490737642e-23)
(0.00494486373047145 0.0127659589482723 -7.45094029841798e-18)
(0.00457566311851041 0.0145867179555593 2.5434711133178e-19)
(0.00382711067708436 0.0160709261587982 9.60919303981211e-18)
(0.00278505418652041 0.0172681153233238 -7.8075290301505e-23)
(0.00159036219997906 0.0187908082986658 -9.01982814344609e-23)
(0.000422771051273209 0.0219576067659814 2.22212534211281e-18)
(0.000284443991001344 0.0292723974047555 3.36515378052219e-18)
(0.000298963277388382 0.0372510044435042 0)
(0.000290890223565746 0.0446660638789671 0)
(0.000283985423870751 0.0518155022307057 0)
(0.00027888284084103 0.0587667474993341 0)
(0.000275381672858951 0.0656101316929759 -4.62448607074284e-33)
(0.00027350004971744 0.0723984657946647 2.08464416013963e-22)
(0.000272414327834922 0.0791661713736175 -2.08464416015624e-22)
(0.000271780425954139 0.0859319854929024 2.49623415621383e-22)
(0.000271137425964523 0.092703417727269 -2.49623415624277e-22)
(0.000270300216407475 0.0994817011121335 0)
(0.000269173120875961 0.106264319761337 0)
(0.000267924713222197 0.113049677113592 0)
(0.000266848503392045 0.119842477098903 -1.787622663408e-17)
(0.000265635401413935 0.126660142695034 -1.84765514292861e-17)
(0.000262707161872885 0.133490967845763 0)
(0.00025542738889185 0.140274435230662 0)
(0.000245099177048318 0.146854053581134 9.12546533591542e-17)
(0.000233997459512373 0.153226796374033 9.5247061677318e-17)
(0.000221610037741437 0.159360983420588 2.2382281361838e-17)
(0.000208074486611101 0.165227760871697 2.2666576385733e-17)
(0.000193549808491698 0.170800741518787 2.39695550809029e-22)
(0.000178197199540657 0.176056112022294 0)
(0.000162187919730793 0.180972991657003 0)
(0.000145697001349031 0.185533664044668 -2.36753467320813e-33)
(0.000128898679039503 0.189723725791817 2.38913334185703e-33)
(0.000111962312713645 0.193532157241437 0)
(9.50487311932161e-05 0.196951318547593 -2.78099704990029e-22)
(7.83072754281846e-05 0.199976874313918 4.18630208069214e-22)
(6.18734862918609e-05 0.202607660717513 -1.40530503078192e-22)
(4.58673788614253e-05 0.204845497697547 0)
(3.0392408915394e-05 0.206694959761588 0)
(1.55350168537688e-05 0.208163113789315 -2.45932348365901e-17)
(1.3646145295865e-06 0.209259234716559 -1.1260272698647e-18)
(-1.2065953849254e-05 0.209994504130893 2.29501586014577e-17)
(-2.47196003691944e-05 0.210381705568073 -2.32688683275374e-33)
(-3.65739072771627e-05 0.210434918259583 0)
(-4.76198852829727e-05 0.210169221073639 0)
(-5.78605945132485e-05 0.209600404455181 2.23950109985114e-33)
(-6.73095626614484e-05 0.208744702637412 0)
(-7.59894361183335e-05 0.207618546415936 0)
(-8.39306830383351e-05 0.20623833108538 0)
(-9.11700820585584e-05 0.204620207223188 -1.3405998428074e-22)
(-9.77496108670992e-05 0.202779899374768 1.3405998428074e-22)
(-0.000103715259406017 0.200732536182595 0)
(-0.000109116717882076 0.198492513116356 2.56374883390982e-22)
(-0.000114005528198055 0.196073335102505 -2.56374883390529e-22)
(-0.000118435489076008 0.193487552997031 -2.47584795216495e-22)
(-0.000122461229586708 0.19074659913814 2.47584795217561e-22)
(-0.000126139258481402 0.187860769143022 2.38183613634695e-22)
(-0.000129528427493141 0.184839058205645 -2.38183613635684e-22)
(-0.000132690267495699 0.181689033301786 0)
(-0.000135674661314005 0.178416729251122 -1.7232628241865e-17)
(-0.000138556435198868 0.175027195410542 -3.38174523012558e-17)
(-0.000141401224863942 0.171522733374404 -1.65905691292343e-17)
(-0.000144273014392887 0.167904765874645 -1.0911779104369e-23)
(-0.000147230070027331 0.164171986647416 -4.14187644639619e-22)
(-0.000150272555534733 0.160322131176024 -3.91686673495492e-22)
(-0.000152713688056923 0.156339297072839 3.91686673502862e-22)
(-0.000155783834978101 0.152166706882407 0)
(-0.000160286197389287 0.1478548144039 0)
(-0.000165566396686138 0.143394868724516 0)
(-0.000171506570905035 0.138756710309931 0)
(-0.000178656415083099 0.133929162212019 0)
(-0.00018661822417048 0.128856054157179 0)
(-0.000196620927051299 0.123535410897727 0)
(-0.000204278172287052 0.117851607734763 0)
(-0.00021117870375829 0.112045922906135 0)
(-0.000220816069309728 0.10595366712816 0)
(-0.000238365899548614 0.09951472491865 0)
(-0.000256597915969865 0.0923570445109479 0)
(-0.000282806831584348 0.0846666280265903 0)
(-0.000308411157589725 0.0758118291725045 0)
(-0.000329764312133096 0.0660394377344343 -2.66048999044781e-22)
(-0.000740046699112436 0.0552038652175128 1.25561829605365e-21)
(-0.00450515914672339 0.0574185248517613 0)
(-0.0100590642008301 0.0649130310222479 0)
(-0.0174045614801057 0.0752291878266244 3.52193376626365e-19)
(-0.0262005781370491 0.085504197344339 -5.43141039911645e-20)
(-0.0363609434607934 0.0958737087119826 -4.6794477393612e-19)
(-0.0478195273196419 0.106338763878528 5.32232499865891e-19)
(-0.060660833827011 0.117223021263094 0)
(-0.0755433548030063 0.129818787123296 -1.87464561533654e-19)
(-0.0912609203458723 0.143225490244626 -1.34472908981116e-18)
(-0.106901413574354 0.156840530661962 4.71563040799007e-22)
(-0.122180852239805 0.170672029175456 -1.0125193346492e-21)
(-0.136678951221805 0.184527959730999 1.11570543983344e-21)
(-0.149894952380165 0.198096953728827 -5.9346160913591e-22)
(-0.159932143214886 0.20925071075283 -2.46855306676334e-18)
(-0.16730434072137 0.217587347915739 2.58417192327979e-18)
(-0.174584281270553 0.225045758879116 3.56161865254021e-22)
(-0.182749931343562 0.232722508314301 -3.69290880511715e-22)
(-0.192418612646658 0.241335199951594 2.95378056728905e-18)
(-0.205145863823355 0.252711468559923 3.13947684409162e-18)
(-0.222571894883626 0.268748634666219 -6.35472729239876e-19)
(-0.251416405862532 0.297754174950865 0)
(-0.286758416862996 0.338967197356253 0)
(-0.326438745700749 0.394790602719838 0)
(-0.370168175281653 0.470920854577031 1.67982386804908e-18)
(-0.414400345767374 0.574104249525402 3.41198376447116e-23)
(-0.441643712869182 0.700879598857716 0)
(-0.412056049302472 0.811320031702857 -2.13630002960306e-18)
(-0.284813817200794 0.808937956155147 0)
(-0.161775514857496 0.798617297587286 7.31299906694414e-19)
(-0.0677255818910437 0.758579700391785 -2.21572769787241e-22)
(-0.00915353860967971 0.677762635006186 5.94314384956166e-23)
(-0.000183787137309508 0.65013478406912 0)
(-0.00440800119824897 1.3736780507924 0)
(0.00132741014205932 1.28312535949832 -2.31242632532228e-22)
(0.061871264869874 0.994916878606839 -4.19107243913683e-23)
(0.0919724892878164 0.56726268284022 1.71429848357333e-22)
(0.0438452647482572 0.153394281990343 1.06836614277488e-22)
(0.00589493737331205 0.0156776219654015 -8.99719497107332e-20)
(0.00463777957969599 0.00750547918320409 -9.51268784617391e-20)
(0.00369429923202757 0.00521065878963889 -1.06344153511585e-24)
(0.00192348543754171 0.00252051177258648 2.54383363750447e-20)
(0.00145392703228485 0.00177530608205355 -6.43913514989376e-21)
(0.00129852813847345 0.00153794662170218 0)
(0.00124622331280235 0.00147335112708499 -2.04143828486016e-20)
(0.00125433103694247 0.00150753506631978 -1.54947734568344e-20)
(0.00134699494531463 0.00164604188774295 1.67787165486789e-20)
(0.00153742547961615 0.00190525588184329 2.55230347237497e-20)
(0.0018528378377652 0.00232105237500483 -7.54118736600619e-21)
(0.00235827472893705 0.00297741068728959 9.64607948286598e-21)
(0.00312684976124886 0.00396930614678809 -5.25002825881855e-20)
(0.00424032364433866 0.00540369105934018 -6.17908567287392e-23)
(0.0057100336742193 0.00734174051996141 3.50127682048077e-23)
(0.00749034931594727 0.00983266593711532 1.29138705593492e-19)
(0.00953240679673116 0.0129444170700315 -8.40048962610146e-23)
(0.0116994740080144 0.016685984539315 2.14331869875761e-19)
(0.0137553154106581 0.020984735883367 1.58800646758152e-22)
(0.0153963296063499 0.0257078790252684 8.08999162955063e-20)
(0.0164008175335192 0.0307630717875983 4.79923041727374e-20)
(0.0167574905053456 0.0361270422278993 -3.72355409323707e-17)
(0.0162341056371545 0.0414323103825609 -3.58385211321912e-17)
(0.0146624970605645 0.0462264112913323 -5.71289882518421e-19)
(0.0120798765508013 0.0501851697096007 -9.14635157140341e-18)
(0.00880465862034985 0.0536635832602007 1.4633599061258e-19)
(0.00524339846424204 0.0582586019071996 0)
(0.00195359018381198 0.0676810221193867 -3.08355582900567e-21)
(0.00174747957929654 0.0863202968594206 0)
(0.00176173193430931 0.105404647806636 -1.1237487170334e-16)
(0.00167054737956666 0.122705657633875 -1.33550497790045e-16)
(0.00161015037382951 0.138983701288578 -9.0286580142617e-22)
(0.0015666146530722 0.154482778830781 1.92058904237887e-21)
(0.00153769771657343 0.169435284142324 1.12737374299728e-22)
(0.00151906314486678 0.183999161376147 -2.37229239827456e-21)
(0.00150631837058317 0.198270555657074 -1.1043677578619e-22)
(0.00149672699281681 0.2123107516285 1.35226855878436e-21)
(0.00148805498865424 0.226149064196011 -1.57109991935285e-21)
(0.00147918843579959 0.23979873493704 1.57109991934986e-21)
(0.00146970351094611 0.253261152647363 0)
(0.00146036667559379 0.266535426460639 0)
(0.00145318633445677 0.279617324448875 0)
(0.00144651425639405 0.292459429006661 0)
(0.00143223435013741 0.304996548077665 -2.21196658640892e-21)
(0.00139518737701794 0.31714158516455 2.2119665863673e-21)
(0.00134167736110599 0.32880226503702 -8.92690988235712e-17)
(0.0012850993705491 0.339958334258824 -9.15595476714634e-17)
(0.001222789534706 0.350572328718572 0)
(0.00115536600857692 0.360612684037297 0)
(0.00108345987909473 0.370051833274361 0)
(0.00100773129458229 0.378866644311412 0)
(0.000928881023073431 0.387038614900262 0)
(0.000847627436159723 0.394553942088852 -1.48237943835999e-21)
(0.000764689858543023 0.401403484162823 1.48237943837285e-21)
(0.000680773624477321 0.407582635639376 0)
(0.0005965564953637 0.413091127178693 1.5572354936691e-21)
(0.000512677432564884 0.417932761388829 -7.69220921474111e-22)
(0.00042972743851477 0.422115103602398 -7.88014572194929e-22)
(0.000348242283329182 0.425649133127002 0)
(0.000268697592268768 0.428548870655 -8.07198857163704e-22)
(0.000191505863407127 0.430830991346056 1.21255333388881e-21)
(0.000117014976363334 0.432514433344414 -4.05354476727743e-22)
(4.55084276725324e-05 0.433620006051708 0)
(-2.2793104661024e-05 0.434170010289927 -1.01658757425031e-22)
(-8.77291094613482e-05 0.434187870795291 1.01658757425031e-22)
(-0.000149195929034845 0.433697790167243 1.01115934816414e-22)
(-0.000207142703664438 0.432724420015584 -1.01115934816412e-22)
(-0.000261566313617701 0.431292560663268 0)
(-0.000312507147687791 0.429426887941121 -3.97304313664787e-22)
(-0.000360044848766959 0.427151697975849 1.1853137065568e-21)
(-0.000404292957364941 0.424490678271396 -7.41025462419395e-24)
(-0.000445394905647219 0.421466707156946 -8.16360908356188e-24)
(-0.000483519701373256 0.418101667620958 -7.72435529185556e-22)
(-0.000518860914879019 0.414416288133092 0)
(-0.000551629487665453 0.410429967656116 0)
(-0.000582054860727565 0.406160675854061 1.46656751638292e-21)
(-0.000610380936645404 0.401624786629898 -2.23752507972122e-23)
(-0.000636866262832654 0.396836964093316 -1.44419226557969e-21)
(-0.000661796198953018 0.391810047878952 0)
(-0.000685477050740162 0.386554741157608 0)
(-0.000708166554117809 0.381079545697571 0)
(-0.000730245655609697 0.37539112751349 0)
(-0.000752083887472486 0.369492758222303 0)
(-0.000774044941962361 0.363385437286804 -2.52556858522211e-21)
(-0.000796496751207925 0.357066575120163 5.83957115875368e-23)
(-0.000820051260965768 0.350530782382388 2.46717287361e-21)
(-0.000844971312903898 0.34376535992697 2.34510058916304e-21)
(-0.000872339429674135 0.336749634755265 -4.62624500813739e-21)
(-0.000902688373863922 0.329468193908508 4.49610761400556e-21)
(-0.00093734060087693 0.321897410144148 -4.36120461379399e-21)
(-0.000976397055132653 0.313992630309912 2.14624141887785e-21)
(-0.00102259931596785 0.305717150151112 1.99968361387195e-21)
(-0.00107493104096167 0.296990889643766 -7.88093146008657e-23)
(-0.00113968670806368 0.287766726857296 -1.92087429925249e-21)
(-0.0011915183771676 0.277887889198435 0)
(-0.00123565906704433 0.267472874678313 0)
(-0.00130283031837775 0.25636674290923 0)
(-0.00141522903254131 0.244424710732678 0)
(-0.00154622412958036 0.231104235518356 -2.69345656128273e-21)
(-0.00172336760113507 0.216391628937436 2.3560034566064e-16)
(-0.00193190417875791 0.199364400465404 2.13239820073484e-16)
(-0.00212023240745927 0.179712674749 -2.15747899120418e-21)
(-0.00263887534212108 0.157636710531482 -2.8767391946266e-20)
(-0.0119828239159957 0.160061831150814 1.7193580376329e-21)
(-0.0258615972385066 0.174470015505421 -2.16363620552854e-21)
(-0.0436079510663959 0.19466990419821 -3.39277336416523e-19)
(-0.0645684476125052 0.21564551872046 2.88405233052175e-21)
(-0.0884110822296896 0.237334047473605 4.5397532863666e-19)
(-0.115164345421208 0.259920712452499 -2.15867664041832e-18)
(-0.145151057670962 0.284255869693162 -3.85510227099999e-21)
(-0.17944895765268 0.312162018153086 4.78857096909397e-21)
(-0.215949827633455 0.342597949885625 -3.22193835667732e-18)
(-0.252867662131376 0.374559950227753 2.805751648038e-21)
(-0.289494807005643 0.407852428694803 -5.84617756764625e-18)
(-0.32501173843528 0.442133896803095 -6.42282675545282e-18)
(-0.358469277971324 0.476781670671426 6.97528919091935e-18)
(-0.386737895718304 0.50855076896966 2.39191391408571e-18)
(-0.4106011791648 0.536226781229227 -1.03526895064854e-17)
(-0.434789474605555 0.562618805162421 -2.20927664502706e-21)
(-0.461651456628436 0.590144880215201 -8.66301208852399e-18)
(-0.492897443586659 0.620737201468001 -1.20024534684107e-17)
(-0.53174835214675 0.658102568065754 -3.04150921963351e-18)
(-0.581965913864895 0.706893666083554 0)
(-0.656243289137284 0.782916358994792 -1.68071566356528e-21)
(-0.745567328969215 0.888547478899958 7.66575927937288e-22)
(-0.841730557512776 1.0270540709283 1.02301901841041e-21)
(-0.939390699020257 1.20654261383549 1.84130656791419e-17)
(-1.02701244406213 1.43680054550017 6.28084438671692e-22)
(-1.06945813981243 1.71190561237249 -2.55893999883337e-17)
(-0.999899659840372 1.97737583519052 -1.43514133030317e-17)
(-0.715767422083404 2.03478693818101 -1.38699402085212e-17)
(-0.378532584147948 1.86322392548528 6.02150072301356e-18)
(-0.149755407703298 1.62915617449107 8.6131803592983e-22)
(-0.0242428176787971 1.44931728955846 2.75542390785639e-19)
(-0.00348927569597492 1.4086620413574 0)
(-0.00706142109025885 1.48154121552723 0)
(-0.00684278418619749 1.43988197479669 -1.13986131052473e-21)
(0.0634535815197329 1.26580041789576 -2.63429977776718e-18)
(0.131734060666586 0.923853933269739 0)
(0.0973350795069637 0.373241011294003 0)
(0.0165770568194104 0.050042646379336 3.97283796448903e-19)
(0.0112055986025268 0.0187526439350227 9.2172873208216e-20)
(0.00912125319533947 0.01308088261002 0)
(0.0048304105202862 0.00646726321882159 -3.32639275996862e-20)
(0.0035950866438533 0.00444041130133974 -4.41512957665573e-24)
(0.00318212586950494 0.0037914237237258 4.26428427456264e-24)
(0.00303665654509 0.00360151617827481 1.97724882356821e-20)
(0.0030475068242293 0.00366570347884149 1.99596784221832e-20)
(0.00326652569820115 0.00398524435528173 -2.15480059302404e-20)
(0.00371987169720885 0.00459121604483588 -2.47273397478912e-20)
(0.00447051682048965 0.00556346312151362 0)
(0.00565965590040362 0.00708141470337839 7.04873636455369e-23)
(0.00743268185237299 0.00933232817458998 -9.3404911822428e-20)
(0.00992680220933804 0.0124974999865987 -3.67286076612179e-23)
(0.0130945774967589 0.0166233041159979 1.24624359485118e-22)
(0.0167485626283541 0.0216977050013872 -1.24908558080226e-19)
(0.0206870259179246 0.027711632418281 4.33297531304934e-19)
(0.0245431366135618 0.0345193643880845 -2.06801637511815e-19)
(0.0278163338066213 0.0418397149680692 -6.5079619687428e-19)
(0.0299892285515384 0.0493561592754524 1.03845079786487e-21)
(0.0307961803430195 0.0568988157361852 1.97631146778664e-22)
(0.0303542051677769 0.0644212712606605 3.69188202514113e-17)
(0.0284568302403847 0.0715007895712334 4.11010249165463e-17)
(0.0250506183239443 0.0777712961769932 -5.74139445391013e-19)
(0.0203924030413007 0.0832842092982336 -1.56140883858043e-21)
(0.0149815748521136 0.0888412926091546 -1.42398048566311e-19)
(0.00936313656315673 0.0965685262338422 -1.72348785292176e-19)
(0.00437281248037453 0.110656487018296 -2.72385188109933e-20)
(0.00427120930108679 0.133886588864279 2.43372692773981e-21)
(0.00414288595666916 0.156416540471759 1.10923963653926e-16)
(0.00383670852736984 0.176414211705524 1.27522481442422e-16)
(0.00363921008457105 0.194867144580705 0)
(0.00349383363631791 0.212113620292457 5.18892872393138e-21)
(0.00339132628568666 0.228466845748102 -5.18892872395826e-21)
(0.00331726237771601 0.244130561892466 0)
(0.00326061136766347 0.259236451923295 0)
(0.00321397801551516 0.273869128230516 0)
(0.00317183364659736 0.288077401998243 0)
(0.00313104984197636 0.301888573108823 0)
(0.00309004199322234 0.315313870016154 0)
(0.0030483718327067 0.328350233334312 0)
(0.00300128779209126 0.340961903918303 0)
(0.0029419515524907 0.353069892513505 -4.83796695432864e-21)
(0.0028646911033368 0.364611147428301 4.83796695437169e-21)
(0.00276445206999335 0.37555936158889 0)
(0.00264966643988351 0.385995178820654 0)
(0.00252806885071707 0.395886700875253 -5.6060067087138e-21)
(0.00239794040981539 0.405219150843712 -1.70420493719039e-22)
(0.00226047699264849 0.413981567033302 5.77642720237296e-21)
(0.00211672354806546 0.422165139792983 -3.04375639001036e-21)
(0.0019677940516317 0.429763798510255 3.04375638997843e-21)
(0.00181483975634165 0.436774222124313 0)
(0.00165901842486977 0.443195830548419 0)
(0.0015014694224655 0.449030711051579 0)
(0.00134329270424793 0.454283497390668 0)
(0.00118553063264897 0.458961211214452 3.38033972112485e-21)
(0.00102915365216619 0.463073074085515 -3.38033972113102e-21)
(0.000875049184873208 0.466630299448161 0)
(0.000724013331340067 0.469645869858344 0)
(0.000576745899662302 0.472134306332772 1.74711364612831e-21)
(0.00043384802307847 0.474111435905223 -1.74711364612537e-21)
(0.000295821687710062 0.475594161085222 0)
(0.000163071449738699 0.476600234353011 0)
(3.59078119147551e-05 0.477148041576648 0)
(-8.54481316839596e-05 0.477256396355152 0)
(-0.000200859393597483 0.476944346973022 0)
(-0.00031026691582205 0.476230995290828 0)
(-0.000413682158151067 0.4751353307254 0)
(-0.00051118103050167 0.473676079988014 0)
(-0.000602897965967153 0.471871566903864 -1.72586942505983e-21)
(-0.000689018697224485 0.469739585597496 3.43949679168255e-21)
(-0.00076977467559964 0.467297284663373 -1.71362736661925e-21)
(-0.000845437563096401 0.464561064392735 0)
(-0.000916317762666684 0.461546477917465 -3.33729741175975e-21)
(-0.000982756389819627 0.458268141331298 3.3372974117537e-21)
(-0.00104512474661006 0.454739634086841 0)
(-0.0011038245050925 0.450973446514883 0)
(-0.00115928320091025 0.446980837835682 0)
(-0.00121197550729731 0.442771761814464 0)
(-0.00126241873496411 0.438354708088471 -3.09689111959301e-21)
(-0.00131108714631513 0.433736695254244 3.09689111962484e-21)
(-0.0013586042736897 0.428922959928079 6.00404852930666e-21)
(-0.00140563157923651 0.423917140860796 -9.98975732424466e-23)
(-0.0014528497749886 0.418720371122912 -5.90415095612685e-21)
(-0.00150098875228316 0.413331792731082 -5.69422304544468e-21)
(-0.00155111026778791 0.407747301238509 5.69422304538344e-21)
(-0.00160412825090631 0.401960268400437 5.46998173241961e-21)
(-0.00166156622216308 0.395957583686659 -5.46998173237057e-21)
(-0.00172454917083234 0.389726742523988 0)
(-0.00179548831047975 0.383244946252496 0)
(-0.00187564664393572 0.376487161243598 0)