/*--------------------------------*- C++ -*----------------------------------*\
| =========                 |                                                 |
| \\      /  F ield         | OpenFOAM: The Open Source CFD Toolbox           |
|  \\    /   O peration     | Version:  4.1                                   |
|   \\  /    A nd           | Web:      www.OpenFOAM.org                      |
|    \\/     M anipulation  |                                                 |
\*---------------------------------------------------------------------------*/
FoamFile
{
    version     2.0;
    format      ascii;
    class       volScalarField;
    location    "30000";
    object      k;
}
// * * * * * * * * * * * * * * * * * * * * * * * * * * * * * * * * * * * * * //

dimensions      [0 2 -2 0 0 0 0];

internalField   nonuniform List<scalar> 
21000
(
0.000139020547999186
0.000184946229709066
0.000111700452387481
7.24752784939412e-06
2.2595595805202e-05
2.09607824295501e-05
1.09738359026721e-05
7.08348621808323e-06
4.653581510142e-06
3.17599606267141e-06
2.29948887917595e-06
1.65901302454384e-06
1.27352653277147e-06
1.09127538144486e-06
1.04627311734137e-06
1.14545452856727e-06
1.43194373716674e-06
1.97499684895641e-06
2.83981175046187e-06
3.95212733304643e-06
5.24947600384683e-06
6.65507407177874e-06
7.99978493315679e-06
9.04949674671529e-06
9.62169210115486e-06
9.8925378453035e-06
9.98550500709838e-06
9.70924036798371e-06
9.04432746507325e-06
8.1781349052878e-06
7.22733755092671e-06
6.16762764345432e-06
9.82835340155981e-06
2.11920435843294e-05
3.27372720966127e-05
4.45502235476961e-05
5.53880002386194e-05
6.5529732624414e-05
7.47713496408152e-05
8.32950691652376e-05
9.10914173058035e-05
9.82249525728394e-05
0.000104691357798061
0.000110497231471071
0.000115627170354023
0.000120069719547349
0.000123812317131135
0.00012685001994111
0.000129177189356198
0.000130778525860141
0.000131615040251421
0.000131719734587276
0.000131125381817196
0.000129865991154419
0.00012798377340264
0.000125527875885863
0.000122553107536528
0.000119118519583802
0.000115285944781578
0.000111118560884909
0.000106679526582636
0.000102030735694324
9.72317235764782e-05
9.23387424121147e-05
8.7404019799812e-05
8.2475201036909e-05
7.75949686012156e-05
7.28008263368284e-05
6.81250332251902e-05
6.35946660764677e-05
5.92317916796695e-05
5.50537250005418e-05
5.1073357260386e-05
4.72995310739084e-05
4.37374449800739e-05
4.03890763889318e-05
3.72536057252707e-05
3.43278348590436e-05
3.16065832853278e-05
2.9083070794317e-05
2.67492613560515e-05
2.45961918295682e-05
2.26142339041432e-05
2.07933831627483e-05
1.91234116933267e-05
1.75941189597279e-05
1.61954750505359e-05
1.49177425101582e-05
1.37514525413316e-05
1.26879536714024e-05
1.17194541370506e-05
1.09575968265529e-05
1.11131175459612e-05
1.12328637040892e-05
1.12924986589503e-05
1.12775365898385e-05
1.11833051419881e-05
1.09871812526023e-05
1.06938218344179e-05
1.02614896932021e-05
9.73079820079849e-06
9.02686064432598e-06
8.24059775389634e-06
7.1918347335704e-06
6.14817944953224e-06
4.81540101359196e-06
4.63289901931292e-06
5.13481224006972e-06
6.46691171278885e-06
6.85432750981977e-06
7.36292294372103e-06
7.33583851190546e-06
7.13422163985195e-06
7.0896237364968e-06
9.17191633160581e-06
1.23620698745723e-05
1.69645454373927e-05
2.31210698044651e-05
3.11371526959543e-05
4.11793072464823e-05
5.33860056142625e-05
6.65997575640628e-05
7.90977773576383e-05
9.13891252117017e-05
0.000105114797068891
0.000120660191332335
0.000140719035232871
0.000167458509480312
0.000213915587718401
0.000291779431455367
0.000408545890068921
0.000584146981804965
0.000861848776078241
0.00129084395515175
0.00183472574740171
0.00193409218257988
0.00121204131337121
0.00053512420350962
0.000175770492498973
0.000108773136479162
0.000709462808754329
0.000654668486839898
0.000402182013795211
0.000160923751260885
3.82081509123585e-05
6.28863401761424e-06
3.81702235507648e-06
2.59820900884547e-06
1.4603749505201e-06
1.05668620412861e-06
8.75956439537759e-07
7.81646429199951e-07
7.59738156324628e-07
8.10570673271718e-07
9.34995399441576e-07
1.15515402289211e-06
1.52235274815779e-06
2.1022016098383e-06
2.97400712000799e-06
4.18090374891612e-06
5.76732724457166e-06
7.79390923508628e-06
1.02798604705812e-05
1.31859591846308e-05
1.64261040632268e-05
1.99734280272319e-05
2.38813476983189e-05
2.78534891022498e-05
3.14384933348722e-05
3.42135882819689e-05
3.62615192428974e-05
3.82238781989745e-05
4.37149269714197e-05
6.19749989121126e-05
8.27551057374331e-05
0.000103001294910848
0.000122673548294518
0.000141972201842249
0.000160944235173707
0.000179762428528407
0.000198476249451013
0.00021714545076994
0.000235772282259013
0.000254353245623962
0.000272865188062372
0.000291291481745954
0.000309632107016598
0.000327910713989379
0.000346084867038759
0.000363961635955768
0.000381136796340614
0.000397596239758839
0.000413247927583078
0.000428007463117447
0.000441801686934657
0.000454568022002838
0.000466255429609413
0.000476824834479673
0.000486249217327031
0.000494513412843962
0.000501613642758159
0.000507556812067682
0.000512359636341814
0.000516047620655427
0.000518653950072624
0.000520218326754076
0.000520785797854554
0.000520405590822425
0.000519130004546266
0.000517013355994861
0.000514111020412535
0.000510478548355247
0.000506170895130587
0.000501241754908907
0.000495742975266332
0.000489724069272826
0.000483231837425447
0.000476310032257202
0.00046899914313225
0.000461336103668591
0.000453354330210129
0.000445083373654292
0.000436549153677185
0.000427773466562283
0.000418774155848013
0.000409564574025542
0.00040015571928555
0.000390550675821461
0.000380751434730821
0.000370752299764019
0.000360547266226867
0.000350130615396217
0.000339590588791467
0.000328752626161491
0.000317594746907405
0.000306032190202848
0.00029405914947498
0.000281515430046604
0.000268449801830468
0.00025453342602518
0.000240417005175619
0.000225553679466794
0.000210114736950829
0.000192843073547854
0.000174902177919622
0.000154033903122791
0.0001325793630538
0.00010877255569261
0.000117182842665137
0.000134426492839064
0.000157697762634786
0.000180120538274255
0.000202081790945189
0.000223343392496988
0.000245008238505191
0.000269823331620903
0.000295060377077369
0.000319133423817946
0.000342227058137363
0.00036392931425316
0.000383776396668498
0.000396790205342081
0.000402496927140114
0.000405789956172495
0.000409175044737355
0.000413687791085068
0.000423166230501241
0.000440369746089054
0.000482534920502546
0.000549471953866161
0.000647042428755096
0.00079192978840036
0.00101472883501011
0.00133988485998901
0.00169872858860644
0.00170165699443561
0.00135670583732603
0.000990441284457683
0.000734683060556301
0.000722946925780297
0.00449997782311297
0.00410741486110452
0.0028192738333512
0.00128074300261149
0.000283708403385786
2.85112937619256e-05
1.7021434549161e-05
1.20851063633595e-05
6.12192985028563e-06
4.56690979472268e-06
4.115651154542e-06
4.07231587798421e-06
4.30305133623255e-06
4.85759273346684e-06
5.81531367763914e-06
7.32873753822177e-06
9.72948693295391e-06
1.3429051269721e-05
1.89378725763079e-05
2.66443927327587e-05
3.6930325871328e-05
5.02919303897016e-05
6.70058299983736e-05
8.69760651978342e-05
0.000109742214383471
0.000134955100822549
0.000162653501393672
0.000190896817935545
0.000217000625705681
0.000237758151502527
0.000253816207502153
0.000273792713767037
0.000321446913198024
0.00043651076607363
0.000561236761528904
0.000678216178039407
0.000790431870456468
0.000899124962090395
0.00100536765764288
0.00111009341468235
0.00121377949152076
0.00131675669598049
0.00141912685870759
0.00152091428491656
0.00162206797777704
0.00172255409495972
0.00182242679631892
0.00192192778785302
0.00202088509604366
0.00211842691855974
0.00221230147055816
0.00230250184674592
0.00238861403362508
0.0024702656492166
0.00254712748941034
0.00261891375584607
0.00268538581518805
0.00274635401277539
0.00280167827413735
0.00285126763424371
0.00289507878879836
0.00293311376001586
0.00296541690757234
0.00299207133780401
0.00301319491676707
0.00302893600544648
0.00303946906364896
0.00304499018061195
0.00304571271118935
0.00304186302111352
0.00303367648698818
0.00302139369613358
0.00300525700298506
0.00298550742288287
0.00296238176901618
0.00293611012991088
0.00290691374126939
0.00287500301306734
0.00284057599354639
0.00280381653529446
0.00276489374588335
0.00272395999914463
0.00268115093979898
0.00263658346959032
0.00259035408257569
0.00254253765608442
0.0024931953234199
0.00244234969695839
0.00239001121106188
0.00233615258039764
0.002280733759918
0.00222364350679513
0.0021648057147334
0.00210396062138236
0.00204095902669218
0.00197535973059131
0.00190699968369727
0.00183506154780435
0.00175952171328047
0.00167869925458595
0.00159604823890659
0.00150916978302934
0.00141730303216284
0.00131500374126424
0.00120516477607966
0.00107856182414435
0.000940112138779205
0.000787618223295816
0.000823414037740746
0.000932727686097026
0.00108050815378666
0.00122423677965916
0.00136504000517263
0.00150214680289607
0.00164092298222815
0.00179669267610048
0.00195470866313027
0.00210543649747998
0.00224868020302014
0.00238182507601622
0.00250127641101898
0.00258100493898233
0.00261832404056341
0.00263942917736277
0.00265860245054958
0.00268315564402587
0.0027330209523845
0.00282548303904703
0.0030466642875028
0.00338593206343653
0.00386016821221969
0.00452610647638054
0.00546917395769473
0.00670257815306915
0.00790017422127787
0.00783960693662658
0.00694396570566779
0.0059288788066148
0.00497868481431368
0.00471216250771868
0.0106656705360822
0.00996076268148327
0.00764494767236843
0.00433124315697817
0.00118542311439061
0.000126662674594939
6.32121092709548e-05
4.54853543751146e-05
2.31142220785694e-05
1.69921140645159e-05
1.52945101695324e-05
1.51826370463257e-05
1.60822043161576e-05
1.81674858489277e-05
2.17369812162903e-05
2.7351676405352e-05
3.62117567533032e-05
4.97835874445088e-05
6.98300773894684e-05
9.76085079354924e-05
0.000134221165324198
0.000181013386310961
0.000238425492416144
0.000305526615292339
0.000380198199516906
0.000460726205347376
0.000546524156221243
0.00063148860101405
0.000707943014615
0.000770155176879896
0.000823032557941793
0.000890343435657467
0.00102996725444049
0.00131850555449297
0.00161593014437128
0.00188676739468028
0.00214219494403555
0.00238594218276518
0.00262142907025742
0.00285111581678146
0.00307644367670665
0.00329835984794648
0.00351729121161872
0.00373342662111732
0.00394676384579812
0.00415727438513782
0.00436489589320378
0.00456894811728882
0.00476843072868672
0.00496188546940765
0.00514761872392381
0.00532532881367515
0.00549438305010889
0.00565424398155433
0.00580444295254881
0.00594458584255826
0.00607435679535788
0.00619351960283306
0.00630191721408069
0.00639946970281572
0.00648617089424665
0.00656208383845727
0.00662733547235264
0.00668211056988328
0.00672664526564406
0.00676122032325099
0.0067861543321581
0.00680179691125831
0.006808522141236
0.00680672223131036
0.00679680158868913
0.00677917121257159
0.00675424361089828
0.00672242821097759
0.0066841271085134
0.0066397312912052
0.00658961737860453
0.00653414461122887
0.00647365234592132
0.00640845724656217
0.00633885188064805
0.00626510198215376
0.00618744502294873
0.0061060880937829
0.00602120355764124
0.00593292754799012
0.00584136737527944
0.0057465736457276
0.00564856293986962
0.00554729249358285
0.00544267877134712
0.00533453337244681
0.00522264740159986
0.00510662348333361
0.00498609841242752
0.0048603440776198
0.00472882403302796
0.00459022373820764
0.00444390954066272
0.00428727209396337
0.0041226166597064
0.00394721137412264
0.0037591590049386
0.00354935022293996
0.00331872726495848
0.00305170417299659
0.002745939460657
0.00240255833259377
0.00245347773264049
0.00268599775184608
0.0030040552919912
0.00332539459978512
0.00364665965400966
0.00396774723610151
0.00429900191738368
0.00466530025971185
0.00504323134461081
0.00541320508812862
0.00577048796734994
0.00610865234373369
0.00641876133220635
0.0066565961659499
0.00681299393666778
0.00693153191053172
0.00704241913700732
0.00716521257643796
0.0073376833934031
0.00760011854139252
0.00810771867053695
0.00884868468799021
0.00982919486122627
0.0111110838275919
0.0127832501659717
0.0148124099542109
0.0167434398284819
0.0168127676345715
0.0149860784476833
0.0128153216653757
0.011233901113433
0.0109293125303379
0.0155155163687201
0.0148219866761073
0.0122740635484878
0.00825219554419235
0.00315545755985839
0.000424371247963168
0.00016976524064151
0.000122877724219065
6.32888921455062e-05
4.55742265912651e-05
4.06886429395383e-05
4.02965883637115e-05
4.2647429948745e-05
4.81115384078493e-05
5.74180609258757e-05
7.19762955192387e-05
9.46813037873943e-05
0.00012886601273448
0.000178154671704483
0.000244452913930702
0.00032875132903149
0.000431998072199627
0.000552719034026876
0.000686650296592926
0.000828063691766232
0.00097317156756675
0.00112063769441848
0.00126135577833357
0.00138627635965446
0.00149229800706795
0.00159174558974484
0.00172495108399116
0.00197872861495724
0.0024399386426517
0.00289987301855998
0.00331413520119858
0.0037007338446527
0.00406587865315642
0.00441529283150174
0.0047529261523692
0.00508120463151984
0.00540171141084319
0.00571527070160661
0.00602231157489316
0.00632294993784409
0.00661710514547443
0.006904290318826
0.00718357641770071
0.00745386073535742
0.00771389028598798
0.00796262355001559
0.00819958657521521
0.00842414828412436
0.00863577713368968
0.00883401627672042
0.00901849263260093
0.0091889207811916
0.0093451046414596
0.00948693698297459
0.00961439717123262
0.00972754738058196
0.00982652749011191
0.00991154902983569
0.0099828883083362
0.010040879028221
0.0100859045972416
0.0101183903356914
0.0101387956844545
0.0101476066495208
0.0101453285162906
0.0101324790038777
0.0101095817948284
0.010077160643192
0.0100357340522098
0.00998581034349342
0.00992788326338557
0.00986242814501315
0.00978989841906906
0.00971072261873664
0.00962530122013982
0.00953400461786892
0.00943717037047974
0.00933510110510164
0.00922806139563838
0.00911627378681427
0.00899991745237329
0.00887913147935428
0.00875399292642028
0.00862452955049337
0.00849070205800348
0.00835241048176946
0.00820944654715652
0.00806154137901887
0.00790825161570816
0.00774909234849431
0.00758325439824974
0.00740996445605148
0.0072277976774341
0.00703565689584262
0.00683085051275832
0.0066137476573506
0.00638165903834501
0.00613195561704229
0.00585522750598031
0.00554924977119792
0.00519794255922858
0.00478946160390737
0.00432853168226715
0.00434110859935476
0.004621738118942
0.0050342900643714
0.00547784202097803
0.00593703953169435
0.00640943908529484
0.00690579528560229
0.00745189053628405
0.00802320682954591
0.00859421546744332
0.00915438344988465
0.00969346066968498
0.0101979909037401
0.0106180980473864
0.0109387462653991
0.0112065572404639
0.011461344716423
0.0117336714992734
0.0120717100399974
0.0125331721431643
0.0133022482530246
0.014384215911156
0.0157752309993212
0.0175280575460558
0.019729112457817
0.0223396295061861
0.0248916760601335
0.0255042702291971
0.0233520662482603
0.0198566692522572
0.0168527804133531
0.015881229964477
0.0195507546087417
0.0187779561760812
0.0161508330701902
0.0119138804489393
0.00586721824822146
0.00115355805050651
0.000376436314031236
0.000267474741891771
0.000140617759077453
9.87172802512091e-05
8.70333126775258e-05
8.58232539413804e-05
9.06750938543633e-05
0.000102028249178577
0.000121174116697761
0.000150722613608741
0.000195725700658931
0.00026132960078729
0.000352116584171513
0.000468669308031051
0.000609540139935426
0.000773027917663472
0.000954070035544725
0.00114504167101825
0.00133861788211418
0.00153156011315337
0.00172346104278921
0.00190573769350647
0.00207214569010655
0.00222558360795936
0.0023881942950251
0.00261532469228659
0.00300447649740795
0.003620063410243
0.00420899150064785
0.00473410386151375
0.00521992558386311
0.00567582490136719
0.0061097564245713
0.00652698704131683
0.00693081857887213
0.00732337590617805
0.0077058396157221
0.00807884084148014
0.00844256469267222
0.00879684225745625
0.00914098129857075
0.00947406147742622
0.00979508760984265
0.0101030572948361
0.0103971851936005
0.0106768867178693
0.0109415294597153
0.011190573307035
0.0114235571933391
0.0116401097949246
0.0118399542425905
0.0120229104753073
0.0121888951295943
0.0123379194030969
0.0124700851658958
0.0125855795636081
0.0126846685050646
0.0127676892045464
0.0128350421031665
0.012887182416285
0.0129246115287291
0.012947868369647
0.0129575210152276
0.012954158583853
0.0129383835970244
0.0129108047593209
0.0128720303559438
0.0128226622889547
0.0127632905606212
0.0126944883477562
0.0126168076665704
0.0125307754847544
0.0124368903366298
0.0123356189082079
0.012227393469894
0.0121126095794197
0.0119916222023436
0.0118647436306303
0.0117322392824313
0.011594325988317
0.0114511728456832
0.0113028844626676
0.0111495059114697
0.0109910110978967
0.0108273004296974
0.0106581677076641
0.0104833207785643
0.0103023070707434
0.0101145808847347
0.00991931886705856
0.00971561979643234
0.00950206031268587
0.00927727214702749
0.00903868335746619
0.00878535267473576
0.00851454400904267
0.00822318804787304
0.00790261607589586
0.0075483572541471
0.00714561698286745
0.00667637878658296
0.00614693611626866
0.00609868157737286
0.0063797017392553
0.00683750374990951
0.00735978523028996
0.00791792737161783
0.00850478534436337
0.00912913335048063
0.00981471916560317
0.0105378551890276
0.0112698742826067
0.011995585540188
0.0127015604664989
0.0133709875858999
0.0139532982262715
0.0144303230518872
0.0148471526838024
0.0152483990979522
0.015672578610755
0.0161742899116594
0.0168236867237532
0.0178150586760867
0.0191743278636822
0.0208955855548558
0.0230220099733615
0.0256304885475616
0.028672428703467
0.0316710592580044
0.0327926042738537
0.0308580363376396
0.0268089565906693
0.0224859757603544
0.0203987376292715
0.023472791771361
0.0224180863290595
0.0196428207938654
0.0151550618841711
0.00876523938863308
0.0024899975181718
0.000745062309439101
0.000499778531187654
0.00027048246756588
0.000184452664409884
0.000159517959880309
0.000156063498028187
0.00016424142065433
0.000183831931988698
0.000216460553243435
0.000265822809641341
0.000338692771993972
0.000440912758437264
0.000576273266644938
0.000742359858115314
0.000934388444618768
0.00114784744511671
0.00137522799228883
0.001608044288938
0.00184011004273757
0.00207025835152991
0.0022996284153951
0.00252175642000272
0.0027344726539858
0.00294693765639114
0.00318944138705286
0.00352438258577817
0.00404272204042435
0.00477633716406343
0.00545816301442819
0.0060652564392912
0.00662585048275387
0.00715135996811625
0.00765098142805402
0.00813068519497661
0.00859425611271379
0.00904410362378429
0.00948159149132062
0.00990742702204655
0.0103217804095672
0.0107243600402007
0.0111144284092948
0.0114911354722277
0.0118535755593954
0.0122008803774101
0.012532326337099
0.0128472517174833
0.0131450051587417
0.0134250225486993
0.0136868242118216
0.0139300262837615
0.0141543462506617
0.0143596058780773
0.01454573142951
0.0147127516241791
0.0148607936441563
0.014990077457086
0.0151009088711242
0.0151936715276445
0.0152688181711508
0.0153268614795634
0.0153683646985966
0.0153939322359567
0.0154042004757261
0.0153998289061718
0.0153814917398851
0.0153498699952096
0.0153056442295123
0.0152494879795567
0.0151820617058763
0.0151040073784744
0.0150159436885226
0.0149184617978753
0.0148121216261625
0.0146974481988555
0.0145749288705166
0.0144450107312798
0.0143080956942494
0.0141645398859224
0.014014648650337
0.0138586745940385
0.0136968167943168
0.0135292080237596
0.0133559144411416
0.0131769280010834
0.0129921586274756
0.0128014114302219
0.0126043894313189
0.0124006458231551
0.0121896074519865
0.0119704591655388
0.0117422338089441
0.0115035388446413
0.0112528552086984
0.010987752186668
0.0107065339731035
0.0104063276896504
0.0100837715630665
0.00973107060834926
0.00934233627361453
0.00890417409656547
0.00839492322595547
0.00782164345387811
0.00771379269898595
0.00797554663916661
0.00845349491044974
0.00902862191586823
0.00966062212941959
0.0103368264156749
0.0110630219830784
0.0118599752770639
0.0127047957799424
0.0135669858181377
0.0144277837947824
0.0152710743094109
0.0160773910393364
0.0167969562704001
0.0174104288114864
0.0179608309942206
0.018495307270646
0.0190581485883554
0.0197087238837181
0.0205267969113675
0.0217095706483432
0.0232993105476782
0.0252912330768024
0.0277206932342764
0.0306516598378067
0.0340183613706743
0.0373252998657449
0.0388082717140137
0.0371837280748454
0.0330912374949849
0.0280783221274074
0.0250050727787023
0.027394245826699
0.0259572999528328
0.0229933286382534
0.0181614438381606
0.0115734058320088
0.00434462882480819
0.00135048379264551
0.000830410927728483
0.000466356682825794
0.000309404317758469
0.000260246634977854
0.000251186239523279
0.000262409669447693
0.000291285623429889
0.000339088746064931
0.000410135335638137
0.000512160556556788
0.000650748588629356
0.000827857313916392
0.00103759389573298
0.00127206774861574
0.00152481635264442
0.00178768054016188
0.00205327854003131
0.00231766569104639
0.00258185863093026
0.00284855954137533
0.00311378757952344
0.00337925651441734
0.00365901185173273
0.00398771047489982
0.00442724929907681
0.00505478296755452
0.0058753150730519
0.00662751515454012
0.00729993448673518
0.00792171082702479
0.00850524609172453
0.00906026748208341
0.0095930805246149
0.0101077206318829
0.0106067436988335
0.0110916029253129
0.011563019975485
0.0120211320242364
0.0124655587275924
0.0128956019772139
0.0133104565479421
0.0137092696554424
0.0140912265790954
0.0144555936990848
0.0148016513041884
0.0151287198155255
0.015436204738987
0.0157236015113265
0.0159905073382605
0.0162366275568583
0.0164617790930793
0.0166658909908863
0.0168490024600856
0.017011258787503
0.0171529053958673
0.0172742804906335
0.0173758065333677
0.0174579808942749
0.0175213660012972
0.0175665792523952
0.0175942828679927
0.0176051739564419
0.0175999749120948
0.0175794243328727
0.0175442684401326
0.0174952531808921
0.0174331171053174
0.0173585848051339
0.0172723610416182
0.0171751255353067
0.0170675283765616
0.016950186030499
0.0168236775167256
0.0166885416569306
0.0165452728021407
0.0163943176638691
0.0162360739470095
0.01607088536127
0.0158990394253645
0.0157207655766726
0.0155362252824298
0.0153455083445559
0.01514862785978
0.0149455091024495
0.0147359738190008
0.0145197314144285
0.0142963491494566
0.0140652470663859
0.0138256290816278
0.0135765004797152
0.0133165105322215
0.0130440656014529
0.0127568680723081
0.0124528035742847
0.0121289162426815
0.0117816187240169
0.0114039118675586
0.0109890720622005
0.0105249079910088
0.0099877639536206
0.00938527406075308
0.00922508000769638
0.00945980251356144
0.00994382675135464
0.0105552792583288
0.0112443352403083
0.0119927571257069
0.0128028877260762
0.0136921359919537
0.0146380005857514
0.0156087529571978
0.0165828150442061
0.0175417400085859
0.0184638750011995
0.0193007259406823
0.020032955143847
0.0207018336602995
0.0213559652440294
0.0220439982453856
0.022829259596541
0.023799364428681
0.0251515428468327
0.0269396008774036
0.0291604097135015
0.0318427449134289
0.0350359724513706
0.0386515579148418
0.0421678119572131
0.04388518972938
0.0425221267150289
0.0385630177131249
0.0333056033763276
0.0295677672277747
0.0312271054916089
0.0294096337718537
0.0262637778479715
0.0211036752201788
0.0142437201164451
0.00650204158887055
0.00223855159939913
0.00125730229589723
0.000733598415597041
0.000478734952600333
0.000389053557767698
0.000367999197511364
0.000380260985721346
0.000417938789963335
0.000480925122273329
0.000573723331277091
0.000704458632016531
0.00087773010730958
0.0010927462992229
0.00133989070162242
0.00160894735602667
0.00189292561965066
0.00218456969340126
0.00247848381674759
0.00277299859884744
0.00307098180521143
0.00337652496352962
0.00368792957376375
0.00400997793555908
0.00435974024796864
0.00477291922888087
0.00530693018631613
0.00602484258770951
0.00691296909402323
0.00772328670279203
0.0084517601916477
0.00912699775034711
0.00976183477723693
0.0103661685706185
0.0109464710988477
0.0115069162299872
0.0120501451902934
0.0125776598975971
0.0130901792667182
0.0135878048353649
0.0140701338163218
0.0145365053818107
0.0149861394418943
0.0154182067527753
0.0158319007980843
0.0162264527975748
0.016601094969116
0.0169551146421614
0.0172878841135616
0.0175988708568622
0.0178876498820247
0.0181539109219488
0.0183974624092392
0.0186182323185075
0.0188162663136144
0.018991723577871
0.0191448706276526
0.0192760735735855
0.0193857890997364
0.0194745545255896
0.019542977301168
0.0195917242258749
0.0196215105875406
0.0196330895074114
0.0196272416353138
0.0196047653918618
0.0195664677534231
0.0195131557465724
0.0194456287864141
0.0193646716325582
0.0192710480819502
0.0191654953587122
0.0190487192021695
0.018921389622846
0.0187841373061261
0.0186375494090638
0.0184821658431291
0.0183184765965065
0.018146919689092
0.0179678763783717
0.0177816687785907
0.0175885572486534
0.0173887325767663
0.0171823101943952
0.0169693267183017
0.01674972700895
0.0165233532937851
0.0162899291313856
0.0160490416567746
0.0158001182513581
0.0155423891545253
0.0152748579181169
0.0149962222688627
0.0147048649950761
0.0143986127362323
0.014075134643784
0.0137314630987067
0.0133638586391725
0.0129659999364193
0.0125307287395356
0.0120468358157932
0.0114897685202797
0.0108677173671961
0.0106632546419175
0.0108685710785254
0.0113503113374111
0.0119868667803728
0.0127210533412985
0.0135293994586853
0.0144106200545283
0.0153786087161798
0.016410838078518
0.0174746242975423
0.0185460844439909
0.0196047170214936
0.0206270503838624
0.0215660856120492
0.0224032055608724
0.0231783566098518
0.0239410767680647
0.0247434468095481
0.0256522627754395
0.0267617168587239
0.0282676068177548
0.0302313661303771
0.0326509711786378
0.0355489616500644
0.0389587028952366
0.0427648967571479
0.0464159902545342
0.0482716637696938
0.0471011987806141
0.0433169806252633
0.0380403578409805
0.0339050928108178
0.0348903219227175
0.0327414206174601
0.029443066566167
0.0240534773764471
0.016822879325041
0.00877873113069312
0.00342113218096461
0.00177767432697581
0.0010644904933892
0.00069521235946602
0.000546236945937124
0.000503600343008528
0.000513225112829573
0.000558396193671168
0.000636171248644843
0.000750652358217527
0.000909574937649276
0.00111548570143939
0.00136403790216501
0.00164242207521595
0.00193955903980952
0.00224924998680906
0.00256588844987316
0.00288611667166331
0.00321019295175574
0.00354247598345995
0.00388821415616642
0.0042475640644388
0.00462743033471693
0.00504630460798538
0.00553886297666429
0.00615672523512371
0.00695097883883597
0.00789538877415054
0.00875687712615474
0.00953585358811128
0.0102597931677231
0.0109416880071402
0.0115914240463104
0.0122155611186111
0.0128183553936036
0.0134025064924228
0.0139695482965137
0.0145201983721716
0.0150545339371545
0.0155721646386155
0.0160724530551356
0.0165546299376882
0.0170178688473934
0.0174613469595193
0.0178842522078047
0.018285773563293
0.0186651625131375
0.0190217566806996
0.0193549938153371
0.0196644247997131
0.019949721661486
0.0202106820740282
0.020447230520393
0.0206594165514614
0.0208474105491167
0.0210114973099267
0.0211520679379135
0.0212696103481983
0.0213646987578571
0.0214379825463277
0.0214901748010042
0.0215220407628228
0.0215343864707442
0.0215280477727353
0.0215038799116927
0.021462747694898
0.0214055163966432
0.0213330435746509
0.0212461715606675
0.0211457207350617
0.0210324835325999
0.0209072192182067
0.0207706496020521
0.0206234552341044
0.0204662696860331
0.0202996776166056
0.0201242113082855
0.0199403484244959
0.0197485074231392
0.0195490450391471
0.019342253217818
0.0191283528043117
0.0189074865489514
0.0186797166191102
0.0184450108078567
0.0182032349683291
0.0179541326768448
0.0176973155850079
0.0174322287967453
0.0171581346938343
0.0168740535701777
0.0165787371867082
0.0162705804654734
0.0159475291585414
0.0156071623185625
0.0152465589455725
0.0148619037504551
0.0144474465502606
0.013995866576353
0.0134967522893072
0.0129253863961056
0.0122905302408948
0.0120492998480953
0.0122254856560728
0.0126999072407377
0.0133536277185023
0.0141240855436595
0.0149830985003223
0.0159257344358317
0.0169623242389724
0.018069966015275
0.0192151415079632
0.020372018333978
0.0215182699892033
0.0226289235143062
0.0236586005648438
0.0245898542397266
0.0254616800061724
0.0263242907467483
0.0272325798299454
0.0282564633136644
0.0294956669290979
0.0311435770210224
0.0332661972144051
0.0358616599157087
0.038945951425024
0.042535026563939
0.0464840736521457
0.0502109795949006
0.0521325302970748
0.051092880456926
0.0474793824811233
0.0422892314555961
0.0379359214043101
0.0383438432795005
0.0359244814233697
0.0325090985353187
0.0270053173886634
0.0193742423612681
0.0110711597422962
0.00487654899713996
0.00240552362533534
0.0014453032679968
0.000956783260064802
0.000733467806306886
0.000657876420474813
0.000659858444003683
0.000710810823792684
0.000802960388907614
0.000938902305520869
0.00112484523236953
0.00136031821297866
0.00163745999523222
0.00194155124820063
0.00226195635566483
0.00259390179082951
0.00293352134283288
0.00327923028233959
0.00363284891694597
0.00399993532919416
0.0043866501669088
0.00479453198022932
0.00523177303162802
0.00571714869128206
0.00628325237396632
0.00697588839373699
0.00783651018769004
0.00883036257439848
0.00973877789591711
0.0105646881912296
0.0113342032203289
0.0120603188455294
0.0127528122557992
0.0134182909334298
0.0140610628498908
0.0146838741933625
0.0152882847458016
0.0158750175250448
0.0164441424368614
0.0169952896001809
0.0175278350250787
0.0180410097687763
0.0185339761569766
0.0190058820525513
0.0194558701269467
0.0198830882769835
0.0202867505093846
0.0206661589060574
0.0210207203743685
0.0213499604247706
0.0216535320076359
0.0219312205467078
0.0221829454330881
0.0224087584038852
0.0226088392488453
0.0227834891749929
0.0229331223427724
0.0230582559069309
0.0231594989494785
0.0232375407183023
0.023293138513231
0.023327105451846
0.0233402984272576
0.0233336064478416
0.0233079395801772
0.0232642185175278