/*--------------------------------*- C++ -*----------------------------------*\
| =========                 |                                                 |
| \\      /  F ield         | OpenFOAM: The Open Source CFD Toolbox           |
|  \\    /   O peration     | Version:  4.1                                   |
|   \\  /    A nd           | Web:      www.OpenFOAM.org                      |
|    \\/     M anipulation  |                                                 |
\*---------------------------------------------------------------------------*/
FoamFile
{
    version     2.0;
    format      ascii;
    class       volScalarField;
    location    "30000";
    object      nut;
}
// * * * * * * * * * * * * * * * * * * * * * * * * * * * * * * * * * * * * * //

dimensions      [0 2 -1 0 0 0 0];

internalField   nonuniform List<scalar> 
21000
(
5.29689470539162e-08
7.04995490766227e-08
4.24923383155786e-08
2.71330102084319e-09
8.06036391598109e-09
6.96824958127678e-09
3.49106698901704e-09
2.23659756660555e-09
1.50582308213133e-09
1.07960522091872e-09
8.37855786514159e-10
6.58962378900213e-10
5.56629378839702e-10
5.22256092292725e-10
5.446355092664e-10
6.44643320450562e-10
8.66442415541584e-10
1.27833316417349e-09
1.95740025873748e-09
2.90138550148362e-09
4.12328926310239e-09
5.6167568884319e-09
7.28209677091302e-09
8.91321881460187e-09
1.02777561619816e-08
1.14517640086978e-08
1.24441536121218e-08
1.29130958932438e-08
1.27061390145298e-08
1.19910207507464e-08
1.09072703091818e-08
9.43238912317479e-09
1.49998671406585e-08
3.22988426700582e-08
4.98937994228122e-08
6.78959251494779e-08
8.44112030715787e-08
9.98651567000779e-08
1.13946970034046e-07
1.26934433276379e-07
1.38813223847198e-07
1.49681804772545e-07
1.59533685207267e-07
1.68378996803609e-07
1.76194343448354e-07
1.82962337755624e-07
1.8866389858308e-07
1.93291543442455e-07
1.9683672172282e-07
1.99276156836881e-07
2.00550475273267e-07
2.00709962871579e-07
1.99804546280415e-07
1.97886026697631e-07
1.95018692190188e-07
1.91277392444371e-07
1.86745598718801e-07
1.81513243845415e-07
1.75674498933678e-07
1.69325586744051e-07
1.62562705074279e-07
1.55480129887741e-07
1.48168549882091e-07
1.40713657920781e-07
1.33195021338874e-07
1.25685231792951e-07
1.18249324837918e-07
1.1094445027647e-07
1.0381977032478e-07
9.69165541781966e-08
9.02684393828416e-08
8.39018243865831e-08
7.78363676682968e-08
7.20855586903205e-08
6.66573337637177e-08
6.15547201006072e-08
5.67764818080168e-08
5.23177572830633e-08
4.81706627943451e-08
4.4324875555163e-08
4.0768157755127e-08
3.74868575163471e-08
3.44663081344085e-08
3.16912686820548e-08
2.91461566748562e-08
2.6815430498309e-08
2.46838078208258e-08
2.27364513645764e-08
2.0958932723347e-08
1.93380686567407e-08
1.78619857743172e-08
1.67008407358337e-08
1.69378698072328e-08
1.71203747823695e-08
1.72112643125005e-08
1.7188460651243e-08
1.70448426482695e-08
1.67459303600868e-08
1.62988210297436e-08
1.5639902301077e-08
1.48310722278978e-08
1.37581941428651e-08
1.25598396407976e-08
1.09613990711875e-08
9.37073664307347e-09
7.33940436496375e-09
7.06124611597711e-09
7.83673751817933e-09
9.89008976652875e-09
1.03443429440405e-08
1.07957500573748e-08
1.03059600666963e-08
9.4884150503855e-09
8.83528522992291e-09
1.06175723591324e-08
1.32049383978696e-08
1.67089023826108e-08
2.10464188890985e-08
2.62784561401869e-08
3.23437812762226e-08
3.91905394297612e-08
4.59026414298688e-08
5.11933399082523e-08
5.52939012101618e-08
5.91523666053895e-08
6.28043017418466e-08
6.73385720969162e-08
7.31853123688438e-08
8.49581769157876e-08
1.06299811003548e-07
1.38850452949664e-07
1.88973912823153e-07
2.72030756942376e-07
4.10432177821909e-07
6.09458003299467e-07
6.89317851068482e-07
4.53490763924745e-07
2.03525327201359e-07
6.70021626777709e-08
4.14448495252111e-08
1.52003221660825e-06
1.40506822585153e-06
8.23931678545118e-07
3.26830545717355e-07
7.72585581122251e-08
1.21624738328771e-08
7.07875505335221e-09
4.77675468647416e-09
2.74900145216848e-09
2.08759230189614e-09
1.85353186002405e-09
1.80179101164826e-09
1.92611313698274e-09
2.24954327701478e-09
2.82065418556261e-09
3.76362426734289e-09
5.32593980760697e-09
7.85491348379159e-09
1.18177143260529e-08
1.7675257257849e-08
2.60593630551252e-08
3.78127374261066e-08
5.37842252672659e-08
7.46892837327326e-08
1.00987673891955e-07
1.33107598208354e-07
1.71498535036322e-07
2.13751356841565e-07
2.54950585017108e-07
2.89458545038309e-07
3.15230761882667e-07
3.32850648382577e-07
3.66702494040302e-07
5.18192664319573e-07
6.95337491675144e-07
8.69061552307374e-07
1.03801735190658e-06
1.20410228419217e-06
1.36745329646847e-06
1.52977464761746e-06
1.69153602382312e-06
1.85342706417669e-06
2.01556409103853e-06
2.1780403302903e-06
2.34073807356318e-06
2.50358765737318e-06
2.66663391008627e-06
2.83011601083089e-06
2.99355020027727e-06
3.15444412843568e-06
3.309488763909e-06
3.45880053387657e-06
3.60177564763455e-06
3.73758298438662e-06
3.86548401023825e-06
3.98482183624992e-06
4.09503324348687e-06
4.19565593315798e-06
4.28633276054784e-06
4.36681316653484e-06
4.43695195825052e-06
4.49670557843355e-06
4.54612643519314e-06
4.58535542423272e-06
4.61461318369258e-06
4.6341904059113e-06
4.64443764844778e-06
4.64575482257137e-06
4.63858087073787e-06
4.62338366960181e-06
4.60065058471188e-06
4.57087956109524e-06
4.53457113980903e-06
4.4922213809938e-06
4.44431550147439e-06
4.39132241606652e-06
4.33369034684205e-06
4.27184285670344e-06
4.20617611524082e-06
4.1370554340372e-06
4.0648151167173e-06
3.9897545676699e-06
3.91214027617653e-06
3.83220048726262e-06
3.75012729717075e-06
3.66607049956052e-06
3.58015801805367e-06
3.49244365970212e-06
3.40297193387746e-06
3.31171412845724e-06
3.21864135854006e-06
3.12371629259526e-06
3.0277409675786e-06
2.92917624415631e-06
2.82785893621559e-06
2.72302116537729e-06
2.61466473983546e-06
2.50131267058828e-06
2.38350981249032e-06
2.25820248038881e-06
2.13035978128133e-06
1.99523013509179e-06
1.85593674444727e-06
1.69922501473005e-06
1.53876154152148e-06
1.35007193713786e-06
1.16047388513144e-06
9.47107486275902e-07
1.037943052788e-06
1.17912815929237e-06
1.34687770151779e-06
1.47573825018296e-06
1.56879328529809e-06
1.62559143972929e-06
1.65721641689957e-06
1.68532428703677e-06
1.69969366972319e-06
1.69839153150748e-06
1.68734363147557e-06
1.66794113143032e-06
1.64122761089995e-06
1.58901788943749e-06
1.50939068562784e-06
1.41953417308221e-06
1.32898277743565e-06
1.24094114580615e-06
1.16586965220048e-06
1.10750494793811e-06
1.10373175989084e-06
1.15204717643425e-06
1.26291274995689e-06
1.46679730219745e-06
1.82568223011054e-06
2.40804635165558e-06
3.12629386206335e-06
3.19369727076442e-06
2.52886118284828e-06
1.87804602095829e-06
1.44334961620085e-06
1.52007120943552e-06
2.41723989428675e-05
2.277767021776e-05
1.58962208841369e-05
7.39056586468303e-06
1.70499821047407e-06
1.63566576127786e-07
9.51615139547367e-08
6.68978095060182e-08
3.4650011784047e-08
2.70926839843132e-08
2.61293998128707e-08
2.81419611079774e-08
3.26633951481776e-08
4.03076708684352e-08
5.2465659073287e-08
7.14328280850651e-08
1.01847223172021e-07
1.50144300361909e-07
2.25063218731965e-07
3.36567617491663e-07
4.9804062126042e-07
7.27286655094271e-07
1.04317151551829e-06
1.46234078120598e-06
1.99632841670944e-06
2.65207600148495e-06
3.42704515113846e-06
4.27022463591363e-06
5.1052069863315e-06
5.78468545974961e-06
6.24553697919172e-06
6.71876478816233e-06
7.85736025758512e-06
1.06747714756507e-05
1.37561697924466e-05
1.66640563311048e-05
1.94750104894591e-05
2.22197959845692e-05
2.49261920136851e-05
2.76183021203699e-05
3.03086936257026e-05
3.30059277542207e-05
3.57125218873355e-05
3.84286824644342e-05
4.11523679309534e-05
4.38813443665503e-05
4.6614133316246e-05
4.93538893015425e-05
5.21282420891591e-05
5.49671752035593e-05
5.77202958935552e-05
6.03922906863889e-05
6.29701074266841e-05
6.5439783238728e-05
6.77886741632208e-05
7.00053310514581e-05
7.20796876600256e-05
7.40031723821421e-05
7.57687771275535e-05
7.73710867421587e-05
7.880627165684e-05
8.00720460395635e-05
8.11675994376941e-05
8.20935034151968e-05
8.28516002715882e-05
8.3444877941823e-05
8.3877336541427e-05
8.4153848519452e-05
8.42800190904628e-05
8.42620471532533e-05
8.41065923676892e-05
8.3820646587095e-05
8.34114153416504e-05
8.28862093323307e-05
8.22523430641193e-05
8.15170439069259e-05
8.06873742528284e-05
7.97701581504635e-05
7.87719238455899e-05
7.76988348382796e-05
7.65566674691436e-05
7.53507362161399e-05
7.40858967380792e-05
7.27664617444135e-05
7.13961719213719e-05
6.99781282639227e-05
6.85150672705743e-05
6.70085258231993e-05
6.54597879283733e-05
6.38689532544269e-05
6.22358976348527e-05
6.0558138146181e-05
5.88344561870387e-05
5.70582001250155e-05
5.52267639340558e-05
5.33274940516837e-05
5.13584306868939e-05
4.92949296547573e-05
4.71417096030891e-05
4.48461120696209e-05
4.2573253803597e-05
4.02134680457333e-05
3.77264945613851e-05
3.49748406149123e-05
3.20219471834406e-05
2.86410101042044e-05
2.49276843945713e-05
2.08836569751522e-05
2.184036575245e-05
2.46249493148302e-05
2.79952100687259e-05
3.05813461106058e-05
3.24309235561177e-05
3.35588497713772e-05
3.41556773527502e-05
3.46399543437579e-05
3.48139880545761e-05
3.46445197801352e-05
3.42443251251311e-05
3.36447044644589e-05
3.2858313442151e-05
3.15680813931698e-05
2.97801005212131e-05
2.78319339405876e-05
2.58909048242199e-05
2.40211918215992e-05
2.24009981766715e-05
2.11111101305903e-05
2.07730760800997e-05
2.12213578225942e-05
2.25657170499618e-05
2.51816725180149e-05
2.97356282735278e-05
3.66745067611921e-05
4.41249577156348e-05
4.32951048428373e-05
3.7290672274222e-05
3.02660925176871e-05
2.48549861096791e-05
2.40481832519155e-05
9.83085264560716e-05
9.81631950986104e-05
7.49673909100135e-05
4.09220167608881e-05
1.26591468765333e-05
1.52094915943852e-06
7.71799596181901e-07
5.49601682611661e-07
2.84567098165766e-07
2.1869585992795e-07
2.10335077967605e-07
2.26840625275643e-07
2.63049866518865e-07
3.23591648622506e-07
4.19184665471118e-07
5.6670066511127e-07
8.00542020104854e-07
1.16757628853074e-06
1.73148570284194e-06
2.56363712453126e-06
3.7562432716418e-06
5.43043107874551e-06
7.70746914294403e-06
1.06759275366481e-05
1.43604285982885e-05
1.87278083556367e-05
2.36825074056411e-05
2.87892155803876e-05
3.33920397603029e-05
3.67311699577212e-05
3.88139463330182e-05
4.13087154849988e-05
4.81097866704594e-05
6.35553008996478e-05
7.98822712810871e-05
9.49608943464147e-05
0.000109260004109343
0.000122947003214224
0.000136192145245094
0.000149132463858528
0.000161846162153574
0.000174386561410922
0.000186775948937703
0.000199023263896002
0.000211125396241446
0.000223077633659815
0.00023489063794664
0.00024669027659416
0.000258437436212037
0.000270032105052699
0.000281177713162291
0.000291884988638212
0.000302113568468209
0.000311826539541202
0.000320991728961712
0.00032958142701379
0.000337572719565836
0.000344947595943793
0.000351692941353641
0.000357800431966245
0.000363266346182137
0.000368091301868561
0.000372279944907468
0.000375840592324692
0.000378784849328395
0.000381127210125839
0.000382884654950709
0.000384076245466905
0.000384722734671285
0.000384846188596967
0.000384469633001633
0.000383616716336053
0.000382311403772298
0.000380577700601366
0.000378439392977563
0.000375919815384072
0.000373041650824013
0.000369826739740551
0.000366295926407391
0.000362468867796229
0.000358363962020598
0.000353998138430328
0.000349386814556788
0.000344543675314734
0.000339480474727013
0.000334206858353964
0.000328731056838337
0.000323057494749748
0.000317189168994371
0.000311125045755483
0.000304862477995489
0.000298390869577715
0.000291700167476676
0.000284766575225813
0.000277573814951358
0.000270073531207331
0.000262244232721963
0.000253992994400059
0.000245307663230521
0.000235988289852034
0.000226514734121256
0.000216601740030917
0.000206011421867327
0.000194178900558485
0.000181189574580738
0.000166101824115987
0.000148849492798936
0.000129568553417582
0.000133251890709079
0.000146812593440143
0.000162712179702139
0.000174978106656139
0.00018366193077463
0.000189058395428551
0.000192045665396999
0.000194354559435815
0.000195252776367491
0.000194531147875691
0.000192607973597905
0.000189622070906602
0.000185585595448821
0.00017913822319293
0.000170222883930653
0.000160328758366366
0.00015030319106198
0.00014052523199644
0.000131845102740131
0.000124807360863212
0.000122435675233973
0.000124018950244705
0.000129758119837521
0.000141082091354041
0.000160523528649803
0.000189207437889943
0.000219014582353579
0.000212150207816537
0.00017604542144687
0.000132629117546594
0.000101570891969489
9.57036500378402e-05
0.000219857935068113
0.000224307158951715
0.000179480472695133
0.000103643779494612
4.25222644136927e-05
8.24378047518641e-06
3.80549061143627e-06
2.73221326190086e-06
1.4208031692104e-06
1.06337083384769e-06
1.01060608662096e-06
1.0823919732394e-06
1.24527670787385e-06
1.5173856295341e-06
1.94172844319441e-06
2.58524588117605e-06
3.58639382300358e-06
5.1288717183925e-06
7.4617645172132e-06
1.08480054663422e-05
1.56004145492923e-05
2.21045622736527e-05
3.06610717978501e-05
4.13239840801195e-05
5.38132046862578e-05
6.76613835440982e-05
8.22941717642961e-05
9.61264409209942e-05
0.000107283941888579
0.000114545992122827
0.000119288214175835
0.000126996732389053
0.00014809682174589
0.000192845538768472
0.000237734351858987
0.000277623858251047
0.000314159838937846
0.000348078336132762
0.000380037545799217
0.000410531486583677
0.000439865501128739
0.000468252403928465
0.000495814640480046
0.000522631039734549
0.00054874926715026
0.000574231481824829
0.000599293095398699
0.000623900924235305
0.000647935013056419
0.000671203485035487
0.000693400277439531
0.000714544967738877
0.000734585542589382
0.000753478998941626
0.000771188981594966
0.000787685847028076
0.000802947156722407
0.000816957828083924
0.000829710097643497
0.000841203329907709
0.000851443695913444
0.000860443738032906
0.000868221862710782
0.000874801765516798
0.000880211819064907
0.000884484440068571
0.000887655454001229
0.000889763460116607
0.000890849221951507
0.000890955078888523
0.0008901243987166
0.000888401055967441
0.000885828959898266
0.000882451630268994
0.00087831179786825
0.000873451046344778
0.00086790950256785
0.000861725541347399
0.000854935541793475
0.000847573586744013
0.000839671328484857
0.000831257662050029
0.000822358613920332
0.000812996922854671
0.000803191746645575
0.000792958362406189
0.000782308987139976
0.00077124923425534
0.000759781272937745
0.000747899922638093
0.000735595845015902
0.000722845929820259
0.000709624798170271
0.000695884179995148
0.000681582681377272
0.000666626176838968
0.000650953740808459
0.000634389004024154
0.000616867154313354
0.000598016979789563
0.000578411904506781
0.000557792201461034
0.000535603522608344
0.000510668108551762
0.00048299861048693
0.000450555690892492
0.000412838266002094
0.000369765157507274
0.000375462223051281
0.000404843290766961
0.000439748174830912
0.000467752907690766
0.000488140910159054
0.000501642077734302
0.00051005727151841
0.000516807930155546
0.000520593523470297
0.000520782486940157
0.000518052404439846
0.000512672988763153
0.000504576772130723
0.000490903567438869
0.000471281598221176
0.000448815544362253
0.000425551584729614
0.000402529276939428
0.000381736919499506
0.000364823648085427
0.00035914289734239
0.000363712907974353
0.000378606161214779
0.000406733029904266
0.000453463664210178
0.000520412484102962
0.000589174185971183
0.000578435438790329
0.000486093030433531
0.000359719225719945
0.00025354478999266
0.000220613523772164
0.000401207150597949
0.000403501000617532
0.000331567678853612
0.000191777875918588
8.85189920455728e-05
2.80175995181973e-05
1.38070017263799e-05
9.96975500998707e-06
5.201196956933e-06
3.75239499509623e-06
3.49374927106041e-06
3.69194801928318e-06
4.18941392167952e-06
5.0250612474453e-06
6.30726315369209e-06
8.2127144672044e-06
1.11201885815581e-05
1.55216795972858e-05
2.20697512637309e-05
3.13743226025657e-05
4.40517421471919e-05
6.07384086004554e-05
8.16050110884558e-05
0.000106061226083725
0.000132862682663847
0.000160709010889335
0.000188326996456258
0.000212781363856156
0.00023150622559955
0.000244212291366662
0.000255363916252768
0.000275783296451827
0.00032305614451004
0.000410751163737235
0.000492922664975723
0.000563529798403376
0.000626685308416275
0.000684239678244285
0.000737684155425301
0.000788050012559977
0.000835993504807179
0.000881964331305514
0.000926243608626522
0.000969025625598052
0.00101046087200809
0.00105078420069036
0.00109012132309083
0.00112836391954815
0.00116536137881969
0.00120088474244031
0.00123467618462218
0.00126675266182869
0.00129705602340933
0.00132554087708449
0.00135216944440809
0.00137691236799938
0.00139974946595225
0.0014206700403241
0.0014396729012256
0.00145676616027923
0.00147196683145423
0.00148530026549484
0.00149679947684849
0.00150650437181536
0.00151446092007797
0.00152072029473726
0.00152533800594118
0.0015283730334365
0.00152988699182945
0.00152994332486169
0.00152860655460618
0.00152594156573108
0.00152201295653098
0.00151688445684846
0.00151061837865295
0.00150327512285915
0.00149491274862301
0.00148558656684935
0.00147534879595743
0.00146424815196228
0.0014523296223589
0.00143963406739935
0.00142619788290613
0.00141205257363619
0.00139722428786214
0.00138173333897333
0.00136559499384639
0.00134881526515056
0.00133139415123027
0.00131332098225193
0.00129457760951596
0.00127512696422122
0.00125492528279143
0.00123389792971826
0.0012119722694933
0.00118900799425094
0.00116489318612567
0.00113937146397222
0.00111230024416894
0.00108315860829193
0.00105240420890227
0.00101978373485073
0.000984549346057964
0.000944902510794765
0.000900646723971643
0.000848652189309597
0.000787680958430035
0.000717306591991125
0.000721102212983127
0.000766070716546878
0.000822234605165417
0.000869747151710571
0.000905830299913201
0.000931316067801053
0.000948847438648435
0.000963456416454878
0.000973441616407776
0.000977561216604991
0.000976562409968239
0.000970821103147591
0.000960114945468091
0.000940053575145832
0.000909776918157471
0.000874046145634308
0.000836396840217296
0.000798820276561238
0.000764634431149256
0.000737130881629888
0.000728829728380094
0.000739276368792643
0.000768208849555424
0.000819814789713961
0.000902110137168288
0.00101621615749107
0.00113107717830736
0.0011203694224387
0.000963604229427123
0.000736079167545886
0.000515875000014753
0.000423455067794455
0.000658139230477612
0.000645253967115451
0.000540063672072947
0.000312137585809785
0.000146209374806218
6.29428596597334e-05
3.90858287302566e-05
2.947593062587e-05
1.55157113541955e-05
1.06871442122145e-05
9.63072836471718e-06
9.95035945878558e-06
1.10581018954415e-05
1.29745042358089e-05
1.5890535548666e-05
2.01759727290424e-05
2.66548569554431e-05
3.63691764430093e-05
5.06078174672235e-05
7.03282200040089e-05
9.62032715436087e-05
0.000128642617897963
0.000166953226619311
0.000209259623469731
0.000253156454058466
0.00029672047995979
0.000338282865923249
0.00037416394600293
0.000402183597497173
0.000424059779677459
0.000447804725702624
0.00048907860262417
0.000570493201804508
0.000704240072421906
0.000824209902249128
0.00092600755433956
0.00101634536286787
0.00109815532541482
0.00117375230233477
0.00124467303307497
0.00131191893126182
0.00137616919975578
0.00143786540354003
0.00149732479066189
0.00155481421270032
0.00161061428274282
0.00166474812586576
0.00171709964650066
0.00176750071607434
0.00181571790612605
0.001861543354273
0.00190498181171476
0.00194596905260231
0.00198445578384439
0.00202040138867019
0.00205377548732751
0.00208455895406907
0.0021127443992718
0.00213833626439457
0.00216135060571123
0.00218181461981785
0.0021997659474016
0.00221525183084034
0.00222832814028115
0.00223905832113129
0.00224751229798028
0.00225376536663791
0.00225789708307819
0.00225999019095853
0.0022601295862427
0.00225840134999758
0.0022548918262696
0.00224968678278056
0.00224287065854945
0.00223452585313123
0.00222473208730299
0.00221356583889859
0.00220109981573557
0.00218740250081821
0.00217253762777147
0.00215656386661016
0.00213953427388821
0.00212149577384229
0.00210248878995832
0.00208254650911694
0.00206169424297085
0.00203995003330383
0.00201732014027131
0.00199380190952838
0.00196937875603626
0.00194402279939303
0.00191768265199524
0.0018902947507881
0.00186175787447888
0.0018319650015362
0.00180073099012366
0.00176788674268935
0.0017331013744771
0.0016961397490446
0.00165635447201622
0.00161399832406129
0.00156870978097424
0.00151963723566245
0.0014644601532684
0.00140262697877054
0.00133009169362863
0.00124454603064099
0.00114545390572068
0.001142933760002
0.00120107935253581
0.00127873279602108
0.00134811842922055
0.00140314226363294
0.00144412698835597
0.00147431958533861
0.001500140217385
0.00151964818981051
0.00153088745199953
0.00153447632313048
0.00153083454352606
0.00151951680137125
0.00149470576104191
0.00145498898163237
0.00140671833883683
0.00135509322495438
0.00130331067263117
0.00125612515967031
0.00121886728310506
0.00120936849315695
0.00122837878322255
0.00127519600478651
0.00135489992158524
0.00147751648478864
0.0016425852211575
0.00180498887451159
0.00179561435501186
0.00157100741663278
0.00123896256712838
0.000895548813937975
0.000721611098122872
0.000994393106310073
0.000953953742377318
0.000809868861901196
0.00047726650602872
0.000216660801009226
0.000106800764845548
8.42205603155561e-05
7.27770379541914e-05
3.97032071591514e-05
2.61026585493263e-05
2.24786108335449e-05
2.2478068667871e-05
2.43099033475105e-05
2.77964781828318e-05
3.31933467784573e-05
4.11948944218942e-05
5.33412890034833e-05
7.14601664189229e-05
9.75049214787144e-05
0.000132346727315152
0.000176014001867527
0.000227994413639144
0.000286265268751435
0.00034770072764533
0.000409172245389241
0.000468637894345097
0.000524473069168229
0.000572950925660228
0.00061296010730165
0.000648429542187715
0.000690350538881633
0.000757813071401061
0.000876125707162746
0.00105386491313033
0.00121014219922865
0.00134264187694347
0.00146016318759915
0.00156650029559395
0.00166467973784885
0.00175667130117103
0.00184378876169678
0.0019269193175684
0.00200665524405263
0.00208342645668621
0.00215760276686419
0.00222941017715559
0.0022988477982273
0.00236579731609912
0.00243008347565141
0.00249148425081467
0.00254983056633431
0.00260511095837862
0.00265725497687547
0.00270620810829804
0.00275192576175255
0.00279437547866556
0.00283353820922349
0.00286940896925076
0.00290199700752723
0.0029313255812373
0.00295743140781282
0.0029803638396348
0.00300018385290902
0.00301696287214633
0.00303078149278145
0.00304172814723884
0.00304989775261325
0.00305539035259069
0.00305830980237742
0.00305876249837003
0.00305685618823027
0.00305269883617248
0.00304639758529076
0.00303805782707605
0.00302778232203029
0.0030156704064641
0.0030018172855925
0.00298631337821844
0.00296924374452386
0.00295068744831219
0.00293071715708622
0.00290939826696769
0.00288678854185978
0.00286293750954193
0.00283788554764573
0.0028116630794233
0.00278429089701056
0.00275577556298536
0.00272611164117505
0.00269527655555717
0.00266323232799325
0.00262991326900739
0.00259523541361385
0.00255907123746453
0.00252127784424208
0.00248162670013464
0.0024398885384089
0.00239566253233248
0.00234861323873373
0.0022979837871622
0.00224378696238084
0.00218549121593986
0.0021221394749695
0.00205101205785432
0.0019710949590258
0.0018776138454467
0.00176694157768367
0.00163872803056249
0.00162586601586996
0.00169390744774252
0.00179209003018281
0.00188462063965004
0.00196107879726192
0.00202057436082544
0.00206661738311988
0.00210672948338191
0.00213883128001279
0.00216019992558882
0.00217114906139155
0.00217205320478229
0.00216217439050447
0.0021343940709202
0.00208674028220247
0.00202705821253017
0.00196231214437573
0.00189711913238565
0.00183777893883694
0.00179197699725508
0.00178277578931679
0.00181259288035572
0.00188026002036699
0.00199138704110928
0.00215728413737524
0.00237481931027224
0.0025837916736211
0.00257516645940156
0.00228108135134871
0.0018418914555042
0.00137621572412558
0.00111216385209483
0.00140482387183136
0.0013280357535643
0.00113981732997391
0.000700315062453353
0.000304641863725866
0.000155207870738148
0.0001392599461964
0.000148415674625864
8.83251018946532e-05
5.64276418911365e-05
4.61533708033486e-05
4.43197866870614e-05
4.64815133631471e-05
5.17990634566138e-05
6.05067467898354e-05
7.37729802534976e-05
9.40717929015107e-05
0.000124010839580503
0.000165768242425432
0.000219299342411128
0.000283328871679631
0.000356185690791363
0.000434700762353508
0.000514976969868998
0.00059367026861068
0.000668987871580602
0.000739654928950113
0.000802343414271318
0.000857208376598605
0.000910086460864758
0.000974124140645057
0.00107061626086533
0.00122616292579414
0.00144525829315177
0.00163652855430557
0.00179932334586294
0.00194404659218191
0.00207517365451167
0.00219633487199851
0.00230987165991233
0.00241737878815999
0.00251993230383566
0.00261826501044143
0.00271290762296347
0.00280428492635965
0.00289257790273968
0.00297778550640203
0.00305979167293906
0.00313842248279945
0.00321347396551037
0.00328480438837458
0.00335238552358123
0.00341614088109807
0.00347601012249031
0.00353194415671165
0.00358390788924823
0.00363188176274124
0.00367586259130738
0.00371586380584712
0.00375191522820032
0.00378406245773161
0.0038123659261683
0.00383689972674186
0.00385775024632066
0.00387501467138442
0.00388879942345863
0.00389921856850985
0.00390639221685842
0.00391044496871686
0.00391150441094826
0.00390969970489764
0.00390516023904697
0.00389801439030643
0.00388838841231797
0.00387640538424599
0.00386218425937481
0.00384583900925423
0.00382747783453078
0.00380720247077033
0.00378510748730768
0.00376127956035925
0.00373579661877269
0.00370872742784527
0.00368013075809092
0.00365005431556661
0.00361853377091559
0.0035855927405082
0.00355123822558482
0.00351546206680606
0.0034782358109301
0.00343951136333467
0.003399208977814
0.00335722424108694
0.00331340389470719
0.0032675688213481
0.00321944854732887
0.00316875284425492
0.00311501468241635
0.0030577954803655
0.00299624068334625
0.00293011471874413
0.00285868842119685
0.00278086988648701
0.00269364255354793
0.00259547142728242
0.00248100676412485
0.00234517506299974
0.00218806502611234
0.00216153359487806
0.00223593218405151
0.00235290301374833
0.0024689493669499
0.00256861706059212
0.0026491144673763
0.00271380907607932
0.00277099465992308
0.00281848793896762
0.00285277236425645
0.00287370760193963
0.00288151952816313
0.00287510657647091
0.00284617438716051
0.00279221633870962
0.00272245861192766
0.0026456745276878
0.00256807150468595
0.00249761024848174
0.00244458989092574
0.00243714362725309
0.00247965247231423
0.0025704977710544
0.0027154958314017
0.00292649402228411
0.00319661694880606
0.00344984519943981
0.00344029331903853
0.00307635521374106
0.00252799128539535
0.0019410176967837
0.00158382623761732
0.00188202445812197
0.00176320505716648
0.00152571292900539
0.000990577820009743
0.000417270108517519
0.000208635859956979
0.000189673699655348
0.000248269533369199
0.000170426192508875
0.000109216472442744
8.54287985455723e-05
7.86139578649081e-05
7.99546866687005e-05
8.70831887740916e-05
9.99454486911851e-05
0.000120198998756732
0.000151211199729874
0.000195961119869512
0.000256089160375163
0.000329980081009581
0.000414949242713785
0.000508421356269577
0.000606502482028363
0.000704951598571261
0.000800526676726144
0.000891878658651037
0.000978248487146115
0.00105691336312169
0.00112921288472908
0.00120245495289608
0.00129125636186548
0.0014183063024291
0.00161072477146475
0.00186897742531026
0.00209423018252473
0.00228701800439789
0.00245897353355414
0.00261512180750318
0.0027596036699908
0.00289508397952877
0.00302341116712447
0.00314583415485561
0.00326321576507407
0.00337617510391044
0.00348515450086989
0.00359032325233095
0.00369168564545106
0.00378913246468342
0.00388249765711244
0.0039715973059696
0.00405630813260832
0.00413658643822356
0.00421235020026997
0.00428353325679551
0.00435008197333411
0.00441195844719381
0.00446914232111687
0.00452163180052252
0.00456944398689029
0.00461261466309977
0.00465119762950035
0.00468526365507615
0.00471489916338462
0.00474020468940041
0.00476129318507916
0.00477828823929323
0.00479132226276512
0.00480053465838568
0.00480607003761973
0.0048080764928591
0.00480670396946128
0.00480210271118341
0.00479442182251468
0.0047838079768751
0.00477040419402492
0.00475434872929195
0.00473577406527928
0.00471480598505243
0.00469156278344499
0.00466615441879565
0.00463868144448445
0.00460923438156836
0.00457789301023383
0.00454472539121272
0.0045097866389426
0.0044731177812377
0.00443474536745334
0.0043946770092772
0.00435290200118919
0.00430938625622927
0.00426407179684799
0.00421686524958424
0.00416764213553445
0.00411622427223004
0.00406239683259377
0.00400584896298901
0.00394623028355155
0.00388301088454231
0.00381564973681479
0.00374320297569308
0.00366519225293873
0.00358068125618897
0.00348841383643467
0.00338515006676672
0.0032688155495632
0.00313359788686165
0.00297295309583068
0.0027876045296741
0.00274483747451044
0.00282213252417051
0.00295565429065371
0.00309485379621544
0.00321884412693334
0.00332232218507785
0.00340807727255201
0.00348481775425703
0.00355023214684299
0.00359999272779872
0.00363337990289879
0.00365036225657728
0.00364940530557515
0.0036211594610134
0.00356262767685859
0.00348429723996969
0.00339674985346151
0.00330791062205771
0.00322751494076276
0.00316868358455637
0.00316441533181009
0.00322122652740589
0.00333707896221918
0.00351769627661426
0.00377471297938073
0.00409648768195637
0.00439073373972434
0.00437793985499803
0.00394460096483464
0.00328632251994529
0.0025783769681593
0.00212619241812501
0.00241950049300654
0.00225481346592449
0.00196328738607141
0.00135051584900238
0.000563600063248607
0.000269222326392166
0.000233951560487509
0.000348155509852922
0.000286765763919776
0.000190141380117921
0.000144737304369456
0.000128258935106351
0.000126843041216571
0.00013549937376653
0.000153313216044229
0.000182164980161727
0.000225950303882463
0.000287386117730427
0.000366955963655409