/*--------------------------------*- C++ -*----------------------------------*\
| =========                 |                                                 |
| \\      /  F ield         | OpenFOAM: The Open Source CFD Toolbox           |
|  \\    /   O peration     | Version:  4.1                                   |
|   \\  /    A nd           | Web:      www.OpenFOAM.org                      |
|    \\/     M anipulation  |                                                 |
\*---------------------------------------------------------------------------*/
FoamFile
{
    version     2.0;
    format      ascii;
    class       volScalarField;
    location    "30000";
    object      omega;
}
// * * * * * * * * * * * * * * * * * * * * * * * * * * * * * * * * * * * * * //

dimensions      [0 0 -1 0 0 0 0];

internalField   nonuniform List<scalar> 
21000
(
2624.56695349598
2623.3675552741
2628.71983080606
2671.11086964537
2803.29722587366
3008.04128570111
3143.40456290183
3167.08125048786
3090.39060787629
2941.81243396424
2744.49244868596
2517.61417292545
2287.92546923439
2089.54073978173
1921.0519687757
1776.8810941323
1652.67040426649
1544.97818276768
1450.8078957206
1362.15174819944
1273.12824031586
1184.86062401692
1098.55515311338
1015.28941844109
936.166605775921
863.844018946774
802.425405402543
751.89098325086
711.807690340146
682.021578920102
662.616525130279
653.877566214994
655.229363660106
656.123929913282
656.139088931453
656.154599110558
656.16882858134
656.182143900475
656.194277201705
656.205467777813
656.215703239298
656.225068384903
656.23355758406
656.241179533522
656.247914042235
656.25374610004
656.258659240062
656.262646994043
656.265701976592
656.26780411663
656.268902240619
656.269039676693
656.26825944775
656.266606195765
656.2641353262
656.260911348266
656.257006201612
656.252497394896
656.247466088417
656.241995209343
656.236167661526
656.230064690529
656.223764448346
656.217340779382
656.210862247164
656.20439140197
656.197984280869
656.191690124301
656.185551288298
656.179603326989
656.173875217438
656.168389698872
656.163163703083
656.158208846063
656.153531959609
656.149135645787
656.145018834375
656.141177331324
656.137604339505
656.1342909609
656.131226648021
656.128399635589
656.125797284533
656.123406461241
656.121213738759
656.119205725131
656.117369252555
656.115691536637
656.114160145821
656.112763721095
656.111492032503
656.110491673751
656.110695880758
656.110853113846
656.110931417661
656.110911771671
656.110788040834
656.110530519686
656.110145322955
656.10957764714
656.108880819454
656.10795650876
656.106924098677
656.105547007628
656.104176620604
656.102426591908
656.102186953986
655.223200746255
653.877959194564
662.616035344095
682.020508495496
711.805446987049
751.887602088201
802.421602925281
863.843072726207
936.170204062952
1015.29981137767
1098.57500823768
1184.89277033049
1273.1754180132
1362.21665715888
1450.89161515499
1545.07944782262
1652.78852118516
1777.0176089508
1921.2090252719
2089.72407419543
2288.14367336911
2517.89286780999
2744.87253270494
2942.34466931862
3091.15143502176
3168.20342583837
3145.08468123048
3010.42194452928
2805.8060292243
2672.6923893258
2629.27573127147
2623.35550785569
2624.52723861368
466.741955205003
465.933592970647
488.125440819772
492.376717444438
494.549106868623
517.052213556674
539.222268083551
543.927662059462
531.238333602231
506.174602755926
472.587743663814
433.816366130558
394.441085384402
360.326774574159
331.481754916043
306.925968385162
285.837392676393
267.628868755352
251.656711099506
236.539909316426
221.314973523015
206.118619428627
191.131515225855
176.544191156195
162.654544165468
150.054754920657
139.251030297495
130.307893778168
123.312105099749
118.198577545675
115.031664506126
114.837926213201
119.210879887322
119.598371762925
119.014301297154
118.520137770883
118.180633559928
117.907094526856
117.696330536008
117.509091164752
117.334923203367
117.158886350026
116.975829896597
116.780778613985
116.572285957225
116.3496236643
116.113466436261
115.864760573227
115.610176507714
115.380593580607
115.164855822153
114.952058051529
114.734499872161
114.51450440175
114.294014867087
114.074867254449
113.858765457152
113.647268049641
113.441779836263
113.243547178449
113.05365653676
112.8730363184
112.702460797276
112.54255622764
112.393808413992
112.256571523366
112.131077489781
112.017446184211
111.915695557052
111.825752077242
111.747460700655
111.680594846592
111.624865841647
111.579931708089
111.545405609001
111.520863847545
111.505852691478
111.499895533322
111.502497822871
111.513154953882
111.531353134765
111.556579760802
111.588318122335
111.626066533864
111.669317509289
111.717593558182
111.770407135016
111.827337496626
111.887915072217
111.951782485747
112.018465577167
112.087841084095
112.159723182347
112.233815502686
112.309260847512
112.387003852189
112.465336375586
112.547077123467
112.6279407048
112.715059094858
112.852771296225
113.046447875757
113.212229662173
113.488838662425
113.664250892756
114.093107845306
114.245882438607
114.84710792469
112.899105929149
114.004989007927
117.083950871767
122.054529827307
128.813523642021
137.392082068408
147.843236409381
160.101728608754
173.596208736497
187.903329649015
202.820013513245
218.190742703897
233.834962390169
249.707827696354
266.661859631586
285.861350763687
307.885889632733
333.366165255425
362.961871168488
397.623276454801
437.184955654689
476.95265012224
512.341354362908
539.904039374732
555.80802522719
556.419879155486
543.368174444511
532.817249152832
536.48885376854
527.37860169811
509.012544368921
475.600696396824
186.161821743421
180.326382015222
177.35497348081
173.294308725631
166.398065196151
174.310023703445
178.868891863755
180.65025525645
176.679012071915
168.566163373364
157.510359365956
144.706186692506
131.739254805318
120.512860922232
110.840381696454
102.596211499486
95.5302130969319
89.4409660396796
84.1446802503151
79.1650513835268
74.1512324393666
69.1500800096253
64.2328025656285
59.4772889573017
54.9720243748067
50.8865887504677
47.4617328399186
44.7041629449786
42.5057448770776
41.101310202062
40.6396132706912
40.7504537514734
40.9102933631832
40.8918136626452
40.7989120516
40.6993450192233
40.5869804734786
40.4650412953748
40.3337845223574
40.1941223556823
40.0472388058139
39.8945518449215
39.7375145665882
39.5775807907068
39.4161517144916
39.2548159092587
39.0960137337524
38.9417696366424
38.767566582951
38.5398542077993
38.3279648225985
38.1257577842605
37.9325068867976
37.7486832467787
37.5745287963207
37.4102045731491
37.255791504731
37.1113011019798
36.9766859166916
36.851849370368
36.7366546840956
36.6309330795246
36.5344907095429
36.4471147329562
36.3685783604637
36.2986450475513
36.2370717642872
36.1836117323631
36.1380163893912
36.1000370140672
36.0694257321214
36.045936402962
36.0293251310462
36.0193504677302
36.0157736382886
36.0183587283079
36.026872459138
36.0410845324447
36.0607670204238
36.08569602273
36.1156491953852
36.1504098822749
36.1897615854989
36.2334983230476
36.2814141552075
36.3333189835434
36.3890078889359
36.4483424602188
36.5111358698114
36.5772799045476
36.6465953989996
36.7191524519378
36.7948623142081
36.8739395349406
36.9559771622543
37.0420505542008
37.1311906962905
37.2261723600463
37.3240963913869
37.4324367735574
37.4894586697468
37.5289637121825
37.5678431998692
37.5985627995559
37.6355869046864
37.6579534108686
37.7135767566096
37.7145738523161
37.7014765720386
37.877344402707
38.5961795297876
40.0321416601928
42.0906917069629
44.7615699921061
48.0424664187203
51.8676398435912
56.1472204812036
60.7725698275435
65.6657765864361
70.7934610789134
76.1230918142717
81.7599557868844
87.92193426944
94.8345588559213
102.684802582201
111.6995219868
122.004427250509
133.838676486883
146.664089408572
159.55303575493
171.063396907488
179.738119981609
183.926631964379
182.758508429666
179.040947125454
181.073748754845
186.211866994631
195.891782302259
200.30929779417
195.946714908011
108.491815721072
101.471459557496
101.976973982528
105.841390523006
93.6416273507401
83.2787038336624
81.9022315944005
82.7605806426429
81.2259120170839
77.6974656498482
72.7149761101097
66.9308552111277
61.1374737763051
56.1432469789153
51.8553826196394
48.2647684911073
45.2340487368298
42.6384022470649
40.3295720402739
38.0742293835128
35.7328201657003
33.333152319977
30.9343427776698
28.6182736107504
26.4754075349965
24.6011811205184
23.0771238391363
21.9349012567138
21.2009514751662
20.9673467457304
21.2045575288916
21.5534040505518
21.408684713061
20.745799891261
20.2288958295289
19.8688882162104
19.6063963341218
19.4062654671451
19.2480195208017
19.1180092047975
19.0084437948392
18.9140712521665
18.8316067010955
18.7587448222545
18.6939322130841
18.6359982259697
18.5826729041255
18.5209898840293
18.4510061645033
18.3751686431482
18.3073497043227
18.2446135326124
18.186482248933
18.1326579510312
18.0828427303221
18.0367743911417
17.9942170776428
17.9549580158322
17.9188049376967
17.8855840605007
17.8551384195512
17.8273265495431
17.8020212020819
17.7791082345638
17.7584855296371
17.7400619625626
17.723756343883
17.7094964646659
17.6972180940992
17.6868640849104
17.678383428166
17.6717304639899
17.6668640910357
17.6637469834812
17.6623449686954
17.6626264950186
17.664562024237
17.6681237701007
17.6732851206251
17.6800211436775
17.6883072865561
17.6981212667784
17.7094405545835
17.7222469348918
17.736523911966
17.7522615101647
17.7694417785178
17.7880833570479
17.8081835447851
17.8297844203213
17.8528981563538
17.8776695814998
17.9041631918756
17.9326646018206
17.9631440137871
17.9963732687621
18.0321373856162
18.0722454532651
18.1156572205682
18.1673086264218
18.2002141083658
18.2233594871363
18.2473329433138
18.2787636181457
18.3163257192795
18.3724904241005
18.4477582625437
18.5427580166821
18.4123296081182
18.2954179127773
18.4623873731544
19.0046324270732
19.8552832295139
20.9868872900754
22.3853108503998
24.0040690234105
25.8292426793399
27.8269323305888
29.9597563878463
32.2148804436509
34.5865276703355
37.1589940287664
40.0239602299497
43.2332413795194
46.8547546279525
50.9887973472228
55.6538183133415
60.8947940956959
66.2202307868457
71.3494564381544
75.7501331980926
78.756160480418
79.6347443486591
78.2866155760052
76.4489727056216
79.2493573662246
85.1262039337165
96.6252501896766
110.601579799138
114.199537071121
70.5706453756755
66.0789728931384
68.3866237043883
79.6207508490307
74.2071854207815
51.4777472836055
44.6106055632698
44.9736943790313
44.5444474766189
42.8582627439196
40.2616246608842
37.2292010288207
34.2473521580277
31.706863088338
29.5705926990568
27.8411798441764
26.4001413286228
25.1256065290846
23.8756759602245
22.5343649290331
21.0732431495806
19.5433895886074
18.0267355841629
16.6162656355118
15.3877416629249
14.3829687865086
13.6174612417045
13.1218400083102
12.9215643576389
13.0279373325238
13.3436953578544
13.5826414707018
13.3610471286981
12.6522949829867
12.1979553896361
11.9375014167612
11.7797801818483
11.6809299260889
11.6180437441158
11.5774948029484
11.5517234665619
11.535896805921
11.5270309405812
11.5230652545091
11.5224754115484
11.5234106016726
11.5207239526641
11.5139698286317
11.5040252265367
11.4926254972888
11.4834444246527
11.4752562055852
11.4678928398585
11.4612048190061
11.4550602868443
11.4493521327411
11.4439919293075
11.438907028258
11.4340382380773
11.4293379845363
11.4247688100457
11.4203021717338
11.4159173542228
11.4116005497985
11.4073440173616
11.403145313059
11.3990065515638
11.3949337536583
11.3909361982618
11.3870258520183
11.3832167936155
11.37952473933
11.3759665797665
11.3725599318691
11.3693227937163
11.3662732501516
11.3634291545761
11.360807994343
11.3584266228605
11.3563015302492
11.3544482161521
11.35288226662
11.3516183172199
11.3506719843858
11.3500590922245
11.3497982732202
11.3499034592652
11.3504072841933
11.3513320973891
11.352724878021
11.3546188961805
11.3571180364782
11.3602870133698
11.3643215969693
11.3692623950417
11.3755724898297
11.3832427583081
11.3933211824064
11.4054652556013
11.4225026104811
11.434321468522
11.4409255303847
11.4486842565564
11.4658178333978
11.4891630135406
11.5367371099722
11.6013024913807
11.706164289376
11.5620382899662
11.4161163698336
11.4481204300783
11.7109737447094
12.1625526730793
12.7769167894437
13.5392546508437
14.4190715766324
15.4116531762879
16.502504755754
17.670767226306
18.9076875165023
20.2109797101363
21.6297023523029
23.2106373486398
24.969182509906
26.9329151334386
29.1498585854144
31.6231137816709
34.3540562925065
37.038873249226
39.5482689664957
41.6665987386616
43.0947482927104
43.5075928127123
42.9267747961371
42.2484159232173
44.0918182373709
48.0403231196987
55.2004670101131
66.4686520036203
71.98665654277
48.7298259255941
46.5375702844423
48.7105170384261
62.1233309205953
66.2820273100354
41.1726225780791
27.2641607128946
26.8286173154538
27.0356535700912
26.3078061825092
24.9111501499104
23.2460623749636
21.6438613012514
20.3038817149637
19.2118378042985
18.3523503965244
17.600933583404
16.8364254106229
15.9547146664121
14.9379897047634
13.8369133710704
12.7271677917764
11.691316780909
10.7960440709441
10.0751983572467
9.53002015679138
9.15142850053108
8.95631863133834
8.95071259850638
9.11331528607563
9.35212120047995
9.48325995785401
9.30016824773495
8.81327608984895
8.53884757126182
8.40080484639264
8.32942070567223
8.29508296848699
8.28234736999171
8.28245281046813
8.29051725763194
8.3034830845571
8.31945240318439
8.3370765726594
8.35516240811413
8.37169254322321
8.38528804541979
8.39628183185797
8.40519326267995
8.41301162200273
8.4209814063775
8.42854887113963
8.43566450657646
8.4422694920194
8.4483178055689
8.45377677290922
8.45862386847619
8.46284509002844
8.46643367338356
8.46938907527336
8.4717161415763
8.47342443543909
8.47452761793592
8.47504291617899
8.4749906273618
8.47439365469347
8.47327705622477
8.47166764028423
8.46959356111192
8.46708395882843
8.46416859723449
8.46087756521356
8.45724098517669
8.45328873340528
8.44905023067609
8.44455426336862
8.4398287981636
8.434900910103
8.42979664924513
8.42454121705848
8.41915862738793
8.41367251144639
8.40810545722347
8.40248008618924
8.39681888180067
8.39114586098937
8.38548244339222
8.37986101929676
8.37430891608397
8.36886888005895
8.36357770295883
8.35851488261285
8.35374099344418
8.34939975391298
8.34555471220759
8.34251654742459
8.34035249939575
8.33973871836193
8.34061863751457
8.34474590172868
8.34788819772914
8.34936243642774
8.35223554898275
8.36341949102126
8.38104114880982
8.41995940490133
8.47599363058106
8.56946832066017
8.45744399000418
8.32782353045981
8.31575770097142
8.46198256104102
8.74107144834583
9.13200753042323
9.62128681454251
10.1869882207202
10.8253592320356
11.5285611695462
12.2834807255976
13.0833172304537
13.9264445877166
14.8430883038841
15.8613861968627
16.9866920161608
18.2310577524308
19.6196554727208
21.1529709528633
22.823201609128
24.4433754310251
25.9366167689047
27.2003968282173
28.0819646854555
28.4117066104759
28.2148915780439
28.0007941680865
29.2694566783823
32.0235584229276
36.4212951170066
43.5880315187039
48.172141935902
35.6653891522722
34.7430430056517
36.3713054767591
48.5525056037517
59.9499136101929
39.5596503182828
19.0622108739463
16.9554792868529
17.4328112576508
17.2593033973539
16.5634367245486
15.6842070554941
14.852587017853
14.1687056898353
13.6219797363347
13.1752165415401
12.7066062504158
12.1232538528382
11.3870404906943
10.5556469092065
9.71264728970483
8.92276186440146
8.23720523488081
7.68444605927814
7.26866731318889
6.97713333373706
6.79794529089998
6.73970981689126
6.79906557851361
6.94934487451884
7.12239332009839
7.20616802057574
7.08636321631346
6.78225700454312
6.6222973050115
6.54989952389429
6.51929031688341
6.51215707160086
6.5183952464545
6.53238640102108
6.55090486761079
6.5719416081898
6.59421352511638
6.6167521461172
6.63859406818831
6.65855267465865
6.67634234669263
6.69217741419137
6.70640495451818
6.71959027128916
6.73222372626037
6.74402854582578
6.75499188497529
6.76509028721804
6.77430944592161
6.78264317093785
6.79009160332566
6.79666025053793
6.80235923213339
6.80720267470792
6.81120820677101
6.81439653831925
6.81679105774433
6.8184174731678
6.8193034665735
6.8194783598456
6.81897278487449
6.8178183812391
6.81604749319408
6.81369289615508
6.8107875245034
6.80736424531893
6.80345563954235
6.79909379590311
6.79431015962593
6.78913540406781
6.78359930599314
6.77773070136297
6.77155741598629
6.76510639492662
6.75840354008458
6.75147433138742
6.74434324624444
6.73703467698545
6.72957294782319
6.7219834567072
6.71429033589316
6.70652503471266
6.69871684710187
6.69090593198251
6.68313079020062
6.67545874543043
6.66794923176077
6.66071887926143
6.65384297285422
6.64755548229712
6.64196044090555
6.63754527810704
6.63439154411475
6.63369609120749
6.63354714406565
6.63368573069497
6.63564390660032
6.64481760506171
6.66059930046654
6.69440621215666
6.74536981298453
6.82842270196549
6.74911615085412
6.64031616423016
6.61083764861097
6.69720235268079
6.88499119426911
7.15783757177932
7.50381538242778
7.90591115391724
8.36035331409608
8.862170632085
9.40241538908096
9.97565306714085
10.5805944526759
11.2376339933897
11.9660210704506
12.7678942531394
13.6487342199417
14.6228746442168
15.6900956341731
16.8408793934279
17.9511627524479
18.9675292881194
19.8332122919696
20.4595873043103
20.7453927948503
20.7102565714686
20.6789639497611
21.6128099030247
23.6687158069203
26.7088275085522
31.3532011772081
34.6517297804149
27.5487085065902
27.2102291754162
28.3914220189621
38.0530450152053
53.4171653483177
40.6797538490595
16.0350843972723
11.4103424798791
11.7460708137857
11.8533641764415
11.5775230464637
11.1747251614331
10.7943526428938
10.4792276745979
10.2155636287029
9.95597491858501
9.60157817939763
9.10645218504607
8.49041567709088
7.83996640326584
7.22708270432445
6.68795488584998
6.24483908913913
5.90530412155404
5.664278838956
5.50928267236754
5.43127895183048
5.43464970570618
5.51301214249223
5.64288270918026
5.77635599641873
5.84213899991407
5.76947226434432
5.57501725301799
5.47664163663122
5.43699300021353
5.42522294377929
5.42945706148092
5.4426489829157
5.46094224811437
5.48203831255654
5.50450846702717
5.52740833692608
5.55000150755334
5.57152234361826
5.59141554807858
5.60959363519327
5.62620324968888
5.64148095849568
5.65575583088184
5.66923696419033
5.6817738440595
5.69336399674922
5.70399766804887
5.71367212366697
5.72239037321379
5.7301600888974
5.73699297293886
5.74290426477287
5.74791233288175
5.75203832033545
5.75530583472959
5.75774063775596
5.75937035678739
5.76022419823249
5.76033266391752
5.75972726867437
5.75844027689438
5.75650444005255
5.75395275751994
5.75081824279412
5.74713372712844
5.74293167292617
5.73824400245063
5.73310197329313
5.72753607443133
5.72157593259934
5.71525028185208
5.70858692950352
5.7016128652829
5.69435423564474
5.68683668715624
5.67908505460092
5.67112411392006
5.66297868305585
5.65467446712196
5.64623674686852
5.63769615026243
5.6290828712875
5.62043543492643
5.61179321284034
5.60321665077672
5.59476467462729
5.58653817062988
5.57861843687999
5.57119613553388
5.56439372782525
5.55859197716642
5.55394365761373
5.55133075506233
5.54990459569799
5.54974376205191
5.55176455788147
5.56013887089913
5.57511042879018
5.60546995141318
5.65257169776593
5.727170028044
5.67394847893434
5.58460412118062
5.54873169532686
5.60074480574979
5.73374984014298
5.93532084649816
6.19509340754128
6.49923784707938
6.84392486800732
7.22560572857311
7.63780586929287
8.07610972418336
8.53949389202212
9.04271905719884
9.60011905396443
10.2127474841779
10.8830622616482
11.6197226990511
12.4222011222899
13.2810658089565
14.1080796573256
14.8624664530939
15.5087112408049
15.990234071068
16.240777857848
16.2755784188107
16.3201284328455
17.041690477585
18.641214479215
20.9366396689041
24.2008594964203
26.5858013386085
22.2284843799675
22.1452123505873
23.0420938139031
30.1345442239214
46.7556229542451
41.8924733516909
16.074626341174
8.4714926443364
8.30566169594705
8.48405030860472
8.42958057008203
8.30327095456884
8.18090802574506
8.06846228626113
7.94828920390941
7.77687615852947
7.48852137594604
7.07784989020893
6.59201233743222
6.1098710415213
5.67872715014358
5.31443476981069
5.02545631982287
4.81280515782691
4.67094066431333
4.59048950761349
4.56500028779954
4.59644774066363
4.67795001195699
4.79046819774249
4.89970326135259
4.95689294129231
4.91357425752163
4.78320666055314
4.71931069120224
4.69718809077881
4.69484516834721
4.70410500635142
4.71975776680447
4.73899536880033
4.76007992059273
4.7819321066489
4.80381468164544
4.82514743809045
4.84537241834545
4.86421949189178
4.88164958508873
4.89776463359659
4.9127250512883
4.92672446330831
4.93985360437373
4.95202441734138
4.96323636298963
4.97348497396668
4.98277154904036
4.99110201344401
4.99848621400241
5.00493746766955
5.01047220546961
5.01510966244299
5.01887159369344
5.02178201107116
5.02386690984859
5.02515400477924
5.02567246245599
5.02545263283002
5.0245257816779
5.0229238382316
5.02067914635648
5.01782423672522
5.01439160846627
5.01041354405426
5.00592193684498
5.00094813697432
4.99552283960231
4.98967599362276
4.98343672540485
4.9768333157453
4.96989318748196
4.96264303434277
4.95510878943644
4.94731585500525
4.93928900219809
4.93105296576629
4.92263260350483
4.91405356542837
4.90534160501466
4.89652664005743
4.88763919731498
4.87871657953058
4.86979842180573
4.86094070756755
4.85220168853287
4.8436719961642
4.83543549201802
4.82765570750325
4.82046365522349
4.814173863614
4.80897597288566
4.8055594519702
4.80361214315074
4.80341369030966
4.80563966840413
4.81355624536788
4.82792012573062
4.85562393057101
4.89932231565819
4.96681645083712
4.93318941106674
4.86086794404987
4.82396055897317
4.85504763314817
4.95249118152555
5.1071403766425
5.31010828342704
5.54985144453749
5.82256814074892
6.1254884955032
6.45371311662783
6.80360373403087
7.17436026638753
7.57721863752862
8.02344906097988
8.51375903688768
9.04913908249635
9.6350303192099
10.2707229004338
10.9473237036865
11.5986626728336
12.1917754475338
12.7021978179909
13.0911494096143
13.3124149916525
13.3781736886306
13.45451391908
14.0312639921018
15.3107152809366
17.1349406445794
19.5981509617424
21.4070786337167
18.5387186506246
18.5692642409252
19.2979072317103
24.2822692882529
40.3165215567668
42.0768085242072
18.036934942383
7.16025966960773
6.24604984549995
6.36545334157796
6.39406096347864
6.40599146367781
6.41894971030489
6.41221573913355
6.36518477805334
6.24507995891674
6.01526169539132
5.69238276542907
5.32641795602253
4.97733702649847
4.67420792751597
4.42398801520141
4.23063140861668
4.0940635889225
4.01010115600923
3.97192594429597
3.97466922490181
4.01883845227694
4.09792555265357
4.19666832078117
4.28951456909942
4.34089958183168
4.31543548716577
4.22444309237167
4.18143010220478
4.16955772528857
4.17238861163902
4.18400702244416
4.20039448865823
4.2194151205933
4.23969969185335
4.26039830222328
4.28091468729361
4.3007835569173
4.3196173751829
4.33725977974422
4.35368950629375
4.36897630050824
4.38322707451425
4.39655524322007
4.40899744869841
4.4204983593056
4.43105668468431
4.44066977897814
4.44934002025312
4.45707389021773
4.46388148509452
4.46977617056141
4.47477430056174
4.47889495663568
4.48215969514849
4.48459229976572
4.48621851813462
4.48706580029325
4.48716303058366
4.48654025724883
4.4852284238969
4.4832591147379
4.48066430621752
4.47747613930613
4.47372670510075
4.46944786185318
4.46467106755659
4.45942723407267
4.45374662115193
4.44765875182463
4.44119234631596
4.43437530292654
4.42723471064802
4.41979698550727
4.41208777342712
4.40413221288573
4.39595492146673
4.38758048243151
4.37903364487541
4.37033988265294
4.36152509674423
4.35261858014402
4.34365086643025
4.33465823401382
4.32568016830562
4.31676942252869
4.3079832895831
4.29940508936846
4.29111913855425
4.28327050080081
4.27599312703852
4.26955722753848
4.26417034784112
4.2603965807087
4.25821109548858
4.25800507074452
4.26036142708478
4.2678895367436
4.28163240297335
4.30711047703202
4.3476590378208
4.40899349605078
4.38980448204657
4.3320026793094
4.29681755437266
4.3147846708726
4.38793709377775
4.50982706241394
4.67293818837221
4.86749248744824
5.08979843229226
5.33755008991717
5.60690565765633
5.89483138294872
6.20071535483776
6.53343240460967
6.90216785757674
7.30755106484369
7.74984673066876
8.23256216427187
8.75486677282012
9.30849235715891
9.8418108103426
10.3271834288522
10.7464223417298
11.0714366342364
11.2684134651523
11.3472997506845
11.4356694282384
11.9080051402621
12.9526106474164
14.4475723831006
16.4014928685103
17.8421863801791
15.8478344560506
15.9323518181316
16.5585022172278
19.9962980135421
34.3758697428003
41.1227400441122
20.844267877411
6.90933665347289
5.04001331344813
5.03195705990685
5.06757956770176
5.12928335113111
5.20216511426153
5.2458605824809
5.23738533197276
5.1541317364474
4.97828599050994
4.73341657461222
4.46227928528744
4.20854169098771
3.99133798902376
3.81478458186772
3.68172431136489
3.59229328128167
3.54352677436127
3.53028821039823
3.54861640224223
3.59811236041326
3.67288504600457
3.76055489777043
3.84132238710148
3.88800746400135
3.87378113940997
3.80852472573849
3.77914592883076
3.7737934174759
3.7797471230345
3.79255931194754
3.80903635362048
3.82750112840956
3.84684377245234
3.86637601124227
3.88560599721312
3.90415762498067
3.92176034559621
3.93830834409095
3.95378579828318
3.96823837447855
3.98173506367338
3.99434038644693
4.00606473985444
4.01687060648817
4.0267552076986
4.03571624290908
4.04375601020685
4.05088069512516
4.05710001265365
4.0624269279196
4.06687741627943
4.07047022565865
4.07322663375473
4.07517019971754
4.07632649625307
4.07672283857823
4.07638800549528
4.07535195791849
4.07364556078386
4.071300318681
4.06834812079239
4.06482100722237
4.06075095226743
4.0561696786951
4.05110849035053
4.04559812952483
4.03966867294
4.03334945053877
4.02666898546103
4.01965497657473
4.01233435790977
4.00473334760202
3.99687740457536
3.9887914844493
3.98050007760525
3.97202762142222
3.96339872757754
3.95463866957525
3.94577333617032
3.93683146840586
3.92784342013901
3.91884456130316
3.90987396344252
3.90098185019574
3.89222432692066
3.88367913179278
3.87542975293262
3.8676078277491
3.86034697333944
3.85388591515834
3.84843917443077
3.84448483531671
3.84215675673938
3.84190094751064
3.84427377463886
3.85139800225658
3.86446168535352
3.88797817727727
3.92557176498089
3.98146056562917
3.97282424653028
3.92724833655152
3.89518614079808
3.90487653458592
3.96086732265228
4.05892503689214
4.19278751006601
4.35411007408245
4.53937323691895
4.74657183963862
4.97260498244894
5.21491794831217
5.47305732261238
5.75423197304964
6.0661155197411
6.40935293037479
6.78385875910358
7.19193009553532
7.63265494278755
8.09836955324507
8.5475566644942
8.95646855172759
9.31074085291993
9.58908333353595
9.76579383069934
9.8490932304837
9.94004368257952
10.3338585433037
11.2003806822526
12.4502643315801
14.0533583675451
15.2457213759603
13.8021981019118
13.9146258846105
14.4717242846895
16.8490920112694
29.0901538464595
39.2216445337958
23.7895458485091
7.42988540880172
4.37443136376795
4.18422301023673
4.19575370362103
4.2594538217347
4.34924820345242
4.41305302735666
4.42521638097016
4.36978321958696
4.23882204574795
4.05523373577387
3.85323394171578
3.66531941456298
3.50559797763026
3.37751531006602
3.28369539714992
3.22457957407904
3.19801900315287
3.19994254137143
3.22692822768467
3.27802226671294
3.34796757203352
3.42654548985385
3.49791747211252
3.54063710376115
3.53388155556044
3.48643185708714
3.46655497568745
3.46568486655553
3.47372372305662
3.48722492271825
3.50359537646873
3.52148700127671
3.53998215507932
3.55851272067838
3.57666866637107
3.59414191680193
3.6107404298643
3.62638252637635
3.64105262996074
3.65477809563222
3.66760086243979
3.67955489800948
3.69063725282834
3.70082033292977
3.71009981260289
3.71847312499246
3.7259420829768
3.73251234152799
3.73819312327326
3.74299698070752
3.74693957771628
3.75003945931793
3.75231780631074
3.75379817638169
3.75450622299089
3.75446940792608
3.75371670541299
3.75227830415945
3.75018531465447
3.74746949096224
3.74416296474226
3.74029800204948
3.73590678054751
3.73102119824376
3.72567270310567
3.7198921507267
3.71370970008604
3.7071547338697
3.70025580195339
3.69304061443148
3.68553612050426
3.67776846847636
3.66976306742302
3.6615447976159
3.65313808964782
3.64456728412296
3.63585687660113
3.62703195785383
3.61811833029177
3.60914424870531
3.60013978452073
3.59113948115466
3.58218183566727
3.57331497958571
3.56459368176363
3.5560911944284
3.54788940506384
3.54010965947153
3.53288331931681
3.52642560870628
3.52095156765902
3.51687758579056
3.51442553318513
3.51406357683373
3.51634368784335
3.52302589053711
3.53535445475698
3.55708881300912
3.59190131754998
3.64291730158872
3.64194461314454
3.6065797547313
3.57828651149877
3.58283554267021
3.62642902853553
3.70662841575903
3.8183056534171
3.95431951087513
4.1113648083303
4.28764975144454
4.48061182543191
4.68808276017214
4.90974288600084
5.15157740092262
5.42011220160596
5.71603415783124
6.03910544011452
6.39084401474375
6.77028421645721
7.17031652448381
7.55675623167211
7.90884136956816
8.21467484824945
8.45748600066164
8.61709653913368
8.70033589383129
8.78917599472567
9.12198492699967
9.84994774161501
10.909716175633
12.2556636367157
13.2702564841755
12.1942787330573
12.322554109093
12.8268805218732
14.5085817691208
24.5212679466887
36.6321088992041
26.4047361079404
8.59998871683616
4.08457121791736
3.63896205223562
3.61345136698757
3.65832759111201
3.74264401532504
3.81038904039209
3.83293722895328
3.79758822036904
3.70078188170895
3.56224311125769
3.40912511175363
3.26658900739476
3.1460132563859
3.05074266457403
2.98332034020128
2.94436380136953
2.93222995802628
2.94353717007338
2.97521255535116
3.02597159566234
3.09113615327239
3.16212879152541
3.22597390447273
3.26537217099759
3.26389471048239
3.22938795279214
3.21651723638517
3.2189598354824
3.22854569613925
3.24253860033122
3.25879978227032
3.27622660255291
3.29404967802512
3.31179369559904
3.32911308181112
3.34575707259308
3.36158054156387