/*--------------------------------*- C++ -*----------------------------------*\
| =========                 |                                                 |
| \\      /  F ield         | OpenFOAM: The Open Source CFD Toolbox           |
|  \\    /   O peration     | Version:  4.1                                   |
|   \\  /    A nd           | Web:      www.OpenFOAM.org                      |
|    \\/     M anipulation  |                                                 |
\*---------------------------------------------------------------------------*/
FoamFile
{
    version     2.0;
    format      ascii;
    class       volScalarField;
    location    "30000";
    object      p;
}
// * * * * * * * * * * * * * * * * * * * * * * * * * * * * * * * * * * * * * //

dimensions      [0 2 -2 0 0 0 0];

internalField   nonuniform List<scalar> 
21000
(
0.906723806903716
0.92431277453313
0.921626401119267
0.948885236345742
0.976626266969949
0.988977419017487
0.994266474676304
0.998453592524108
1.00168912248055
1.00394415090185
1.00572627073867
1.00704913600109
1.00800159992398
1.00870360321001
1.00924666756985
1.00964689707381
1.00998223144562
1.01027485743814
1.0106307192275
1.01110469835646
1.01170976534889
1.01246393238089
1.01335941627438
1.01436658156922
1.01540407925621
1.01635461060795
1.01723653377393
1.01800747016092
1.01862057008528
1.0189987911464
1.01914408922885
1.01895804472433
1.01756859665234
1.01734258280399
1.01755568388909
1.01840500061829
1.0197114655418
1.02146633300585
1.02359005740731
1.02605549821947
1.02882483649479
1.0318766934721
1.03518898311458
1.03874475847549
1.04252722779548
1.04652092044864
1.05071017099386
1.05507937464105
1.05961236715383
1.06429224599571
1.06910193373632
1.07402432838605
1.07904197769386
1.08413741450422
1.08929330624182
1.09449261902704
1.09971877949591
1.10495582618257
1.11018854562335
1.11540259029479
1.12058457656861
1.12572216085167
1.13080409466
1.13582025855382
1.14076167657285
1.14562051253551
1.15039005071319
1.15506466248549
1.15963976195832
1.16411175214942
1.16847796471836
1.17273659461985
1.17688663196771
1.18092779286542
1.18486045043643
1.18868556709636
1.1924046300645
1.19601958897564
1.19953279986869
1.2029469689486
1.2062651093687
1.2094904900741
1.21262661078519
1.21567714852168
1.21864596111897
1.22153702204869
1.22435445509463
1.22710245970962
1.22978542029512
1.23240769886162
1.23497400739406
1.23748883732893
1.23995741485897
1.24238424660626
1.24477558512138
1.24713559133078
1.24947275611037
1.25178965386279
1.25409996872582
1.25640076339485
1.25871843169288
1.26103572135766
1.26341087748226
1.2657804186747
1.26828243325826
1.27072721815009
1.27345378383499
1.27591492431178
1.27903575898796
1.28189031647675
1.28496690805827
1.28799404281905
1.29104630360369
1.29404138730356
1.29692610334023
1.29965254260302
1.30200280882331
1.30381704606284
1.30496293199049
1.30526602512354
1.30462995663902
1.30291169615387
1.30033642185703
1.29711038110912
1.29305514015142
1.28787746672672
1.28143079341851
1.27272955988181
1.26113052925884
1.24264609952917
1.21531507229464
1.17661556533318
1.12269771689022
1.04759844754958
0.94945615757491
0.842146924055301
0.789062137403642
0.805720517755891
0.83486860537438
0.889155862288671
0.90672689815175
0.92433556289676
0.921686863252926
0.94867401826129
0.976298190829047
0.988763763731093
0.994120757601213
0.998327120881684
1.00159280908187
1.00387527180471
1.00567699573572
1.0070194460165
1.00798816299103
1.00870175526687
1.00925384518494
1.009660977313
1.01000076003608
1.01029449760308
1.01064671567642
1.01111442590798
1.01171189608684
1.01245788395341
1.01334610040455
1.01434916320991
1.01538809629507
1.01634308849454
1.01722955749254
1.01800566300051
1.01862402246065
1.01900556222911
1.01915387336254
1.01896637800548
1.01757338429253
1.01735471744849
1.0175702668308
1.01842228859022
1.01973096061291
1.02148787780767
1.02361322448639
1.02607999413514
1.02885034095372
1.0319029414951
1.03521571756964
1.03877174588197
1.0425542446968
1.04654775694454
1.05073662746653
1.05510526318882
1.0596375033443
1.06431644717885
1.06912503941131
1.0740462038001
1.07906249969186
1.08415647624058
1.0893108185899
1.09450851085093
1.09973299757297
1.10496833481023
1.1101993259403
1.11541163934748
1.12059190616792
1.12572779626116
1.13080807316349
1.13582262794673
1.14076249362069
1.14561984143609
1.15038796159796
1.15506122998632
1.15963506386361
1.16410586816447
1.16847097534252
1.17272858014743
1.17687767161316
1.18091796401202
1.18484982800639
1.18867422303242
1.19239263291804
1.19600700358658
1.19951968713908
1.20293338568038
1.20625110818989
1.20947611942011
1.21261191414347
1.21566216413276
1.21863071819923
1.22152154683786
1.22433877597232
1.22708662077512
1.22976945955249
1.23239162979876
1.23495783845848
1.2374725711039
1.23994104905245
1.2423677786348
1.24475901272401
1.24711890711144
1.24945595356904
1.25177271573474
1.25408288835085
1.25638349221167
1.25870094862026
1.26101795984019
1.26339290064962
1.26576208711812
1.26826396570679
1.27070830020974
1.27343514901877
1.27589642488187
1.27902863918262
1.28190068898935
1.28499575086141
1.28803963568479
1.29110649508308
1.29411157943713
1.29700115623671
1.29972271804679
1.30205488889193
1.303840136315
1.30494684312367
1.30520301598596
1.30451494737221
1.30274945144639
1.30013876903917
1.2968769146997
1.29277390454132
1.28753738286133
1.28100382831959
1.27217577536857
1.26034557140785
1.24152159128785
1.21380473636154
1.17467748258722
1.12031519292567
1.04497794550352
0.947338914799476
0.84181285720199
0.789978759538098
0.806356071529311
0.835079434979582
0.88919158167438
0.906754690772814
0.924435691996175
0.921923597846452
0.948617883619568
0.976031059412783
0.988590980218578
0.993997430349256
0.998214382590912
1.0015048801208
1.00381132452415
1.00563062004297
1.00699096431705
1.00797495430906
1.00869956396577
1.00926028892943
1.00967400218261
1.01001811036904
1.01031302120565
1.01066182110885
1.01112313979793
1.01171241097273
1.01244900261496
1.01332789580021
1.01432375307282
1.01536022292462
1.01631604975099
1.01720395483801
1.01798257089069
1.01860453965293
1.01898939046773
1.01914233665107
1.01895310873558
1.01756410970534
1.01735946578494
1.01757859420176
1.01843450687532
1.01974587746611
1.02150511479829
1.02363197398832
1.02609978526831
1.02887068091927
1.03192347017853
1.03523609809481
1.0387916951712
1.04257350009141
1.04656608053981
1.05075379794728
1.05512107136787
1.05965175252185
1.06432901220841
1.0691358237339
1.07405508822814
1.07906939302874
1.08416131082868
1.08931354912612
1.09450911424912
1.09973147223002
1.10496469953339
1.11019361856531
1.11540391508784
1.12058223576585
1.12571626398976
1.13079477474752
1.13580766845758
1.1407459854021
1.14560190210012
1.15036871213715
1.15504079302555
1.15961356207987
1.16408342288194
1.16844770531537
1.17270460053078
1.17685309311391
1.1808928922129
1.18482436285794
1.18864845848781
1.19236665671148
1.19598089711227
1.19949352547017
1.20290723762643
1.20622503653071
1.2094501806376
1.21258615713393
1.21563663086539
1.21860548440074
1.22149668653289
1.22431431991508
1.22706256870914
1.22974581146141
1.23236840554434
1.23493505864155
1.23745025333751
1.23991921359548
1.24234643702363
1.24473818541744
1.24709859775387
1.24943619499651
1.25175349506695
1.25406427497351
1.2563654395025
1.25868361048082
1.2610011218591
1.26337699788797
1.26574657888209
1.26824998641426
1.27069434152924
1.27342406862783
1.27588304446415
1.27902538053394
1.28190870658
1.28501816859876
1.28807445029655
1.29115171998993
1.29416241490996
1.29705206225654
1.29976399210991
1.30207443140916
1.30382907143668
1.30489715118488
1.3051091102194
1.30437444605035
1.30256858851307
1.29992712558058
1.29663072957175
1.2924808943418
1.28718586907092
1.2805669015389
1.27161370830063
1.25956910892008
1.24045631510793
1.21244132045852
1.17302539307213
1.11846334524569
1.04332688534516
0.946878315804949
0.843769081927269
0.7929271964681
0.808063459584581
0.83567372793009
0.889290717880523
0.906854464021376
0.924650780467078
0.922446206871781
0.948821934855805
0.975823620431248
0.988439278910458
0.993894650441398
0.998112910283315
1.00142295300099
1.00375041083018
1.0055855817421
1.00696283404155
1.00796178455039
1.00869731066246
1.00926663771533
1.00968681707547
1.01003511494608
1.01033106775785
1.01067612840825
1.01112997976245
1.01170910545365
1.01243331404656
1.01329869621228
1.01428174263374
1.01530918189085
1.01625985805469
1.01714373014393
1.01792005792863
1.01854233130025
1.01892926008096
1.01908523347467
1.01889089808797
1.01752953434686
1.01734881333137
1.01757633310425
1.01844043129571
1.01975680020373
1.02151952260512
1.0236481256883
1.02611665453793
1.02888734018611
1.03193926041529
1.03525043596889
1.03880410329919
1.04258354759689
1.04657339329557
1.0507580688871
1.05512199867699
1.05964902713299
1.06432246710819
1.06912536624199
1.07404060036871
1.07905081310796
1.08413862376054
1.08928678426805
1.09447834342587
1.09969680686226
1.10492628718372
1.11015163901441
1.11535857605465
1.12053376842616
1.12566491840521
1.13074081533301
1.13575136959018
1.14068762726727
1.145541766836
1.15030708034284
1.15497794066061
1.1595497577853
1.16401892571838
1.16838276292031
1.17263944767991
1.17678795065545
1.18082796634553
1.18475984473322
1.18858452408243
1.19230346695741
1.19591859820692
1.1994322494228
1.20284710288257
1.20616614870347
1.20939263188793
1.21253004600949
1.21558206004997
1.21855247152479
1.22144522504233
1.2242644597789
1.22701436919181
1.22969932800004
1.23232368316121
1.23489214199937
1.23740918356444
1.23988004014812
1.24230920148382
1.2447029518866
1.24706540840201
1.24940514953103
1.25172462492879
1.25403775750997
1.25634130477028
1.25866224819531
1.26098225622018
1.26336143482356
1.26573350629464
1.26824135187028
1.27068757546605
1.27342382266606
1.27588106300628
1.27903031759208
1.28191423045603
1.28502889754179
1.28808775542069
1.29116629813208
1.29417326874368
1.29705334148502
1.29974547511762
1.30202539357535
1.30374317547845
1.30476869790332
1.30493491310219
1.30415507764639
1.30231303268469
1.29964377154053
1.29631185684714
1.29211246013132
1.28675414323275
1.28004320023556
1.27095592448727
1.25869471923094
1.23931675185673
1.21105509529968
1.17143713600991
1.11683138081487
1.04217594556
0.947391268127095
0.847290591149672
0.797652246636248
0.8111332339181
0.836996146439593
0.889546751188034
0.907075372292006
0.925002376526855
0.923252351222484
0.949319249587456
0.975723763133995
0.988276145593786
0.993801663335085
0.99801775140231
1.00134362071143
1.00368996305522
1.00553983035376
1.00693365183225
1.00794796804108
1.00869487475856
1.00927326999154
1.0097001962272
1.01005282254363
1.01034978898949
1.01069048352077
1.01113501536084
1.01170092920742
1.01240836107572
1.01325449473954
1.0142176199979
1.01522834689239
1.01616731599992
1.01704131468198
1.01781031302057
1.01842931557424
1.01881632566639
1.01897233570758
1.01877377567028
1.01747682135946
1.01733154908478
1.01757431919045
1.0184513836271
1.01977417979062
1.02154025516838
1.02366940060206
1.02613688733773
1.02890519548038
1.03195382093959
1.03526091463373
1.03880987449038
1.04258406671782
1.0465682312733
1.05074682829839
1.05510432605006
1.05962467535076
1.06429130369731
1.06908731882894
1.07399563148697
1.07899895988333
1.08407998919595
1.08922153390819
1.09440670095884
1.09961904884145
1.10484273711429
1.11006266098105
1.11526456805164
1.12043515559264
1.12556214631079
1.13063434347227
1.13564166520973
1.1405751596382
1.14542700203571
1.15019047661675
1.15485994438532
1.15943080005835
1.16389941955598
1.16826310105322
1.17252000091865
1.17666906677574
1.1807099694458
1.1846430350349
1.18846917809851
1.19218983800772
1.19580691717858
1.19932272585052
1.2027399260907
1.20606148864128
1.2092906501208
1.21243086493421
1.21548575890027
1.21845916637943
1.2213550464895
1.22417750801936
1.22693073560118
1.22961910162125
1.23224694722957
1.23481898465688
1.23733969162441
1.23981431846787
1.24224735088365
1.24464511523565
1.24701170596637
1.24935579808659
1.2516797565058
1.25399773178279
1.25630629626983
1.25863299352658
1.26095853157659
1.26334456213243
1.26572252539996
1.26823918822726
1.27069068582577
1.27343873729059
1.27589712416737
1.27904545455993
1.28191456865342
1.28502145198412
1.28806917407447
1.29113659080991
1.29412717971353
1.29698447105938
1.2996424998817
1.30187846782505
1.30354804127593
1.30452160511637
1.30463488281121
1.30380572532722
1.30192714203647
1.29923060580561
1.29586075787795
1.29160661778262
1.28617610235471
1.27935947662023
1.27011732535982
1.25761339091944
1.23795223516055
1.20943594669306
1.16961685246137
1.1149896203061
1.04088374962424
0.947927724579395
0.851139231648006
0.80300769098738
0.815017076676661
0.838973558689171
0.890023227475201
0.907422682514501
0.925480596972492
0.924243438584825
0.950037301496326
0.975794388144265
0.988094592367354
0.993712645713798
0.997926913979511
1.00126687803344
1.0036300413143
1.00549325054187
1.00690317457648
1.0079333408491
1.00869222494503
1.00928034417284
1.00971445895082
1.01007166764925
1.01036965320099
1.01070519845819
1.01113823632657
1.01168761661505
1.01237388499821
1.01319550188429
1.0141326660384
1.01512062124248
1.01604322892566
1.01690359266702
1.01766225099507
1.01827578392933
1.01866156908081
1.01881646767268
1.01861961456961
1.01741849726984
1.01731587615708
1.01757862636049
1.0184704030471
1.01979901940216
1.02156697330082
1.02369466823065
1.02615891984704
1.02892253057718
1.03196549403934
1.03526611337507
1.03880797661179
1.04257455593641
1.04655069381999
1.05072091965318
1.05506978716413
1.05958133345899
1.06423908773515
1.06902622632985
1.07392572771261
1.07892038752497
1.08399296238717
1.08912633400214
1.09430367093791
1.09950858693206
1.10472528980911
1.1099387156607
1.11513464538103
1.12029980190773
1.1254219261431
1.1304898323772
1.13549344302221
1.14042380427038
1.14527308387624
1.15003455360098
1.15470255775105
1.15927247080987
1.16374064560783
1.16810435504067
1.17236172863748
1.1765116861963
1.18055387024633
1.18448857861898
1.18831669801587
1.19203964075513
1.1956592832727
1.19917791124804
1.2025981634506
1.20592299180048
1.2091556036868
1.21229943766081
1.21535812328573
1.218335486336
1.22123546643135
1.22406215674804
1.22681973361566
1.22951256948316
1.23214500509336
1.23472176183079
1.23724731905273
1.23972695248131
1.24216514749372
1.24456828614226
1.24694044213698
1.24929041400702
1.25162047577172
1.25394506289104
1.25626051876816
1.25859512163357
1.26092845383055
1.26332396386265
1.26571040175229
1.26823914600067
1.27069870528618
1.27346253102578
1.27592494970425
1.27906723037779
1.28191030886294
1.28499909938323
1.288024230121
1.29106980645792
1.2940328637418
1.29685563003892
1.29946706149336
1.30164669123475
1.30325654912287
1.30416779464436
1.30421929755714
1.30333413640126
1.30141457817015
1.29868697528024
1.29527385413132
1.29095751525042
1.28544376043573
1.27850554741255
1.26908519802418
1.25630844599813
1.23633436910901
1.2075371712538
1.16749534349017
1.11284207065383
1.03931852199929
0.948275192109817
0.854918547798418
0.808465644132657
0.819232646282095
0.841348650750207
0.890701699298009
0.90788348505672
0.926060090803955
0.925335240377998
0.950886850641587
0.976034878113344
0.987925325546873
0.993629865428778
0.997836938016649
1.00119217551014
1.00357077663425
1.00544589602068
1.00687133377097
1.00791789604364
1.00868948163867
1.00928816598621
1.00973005278178
1.01009216979416
1.01039119584832
1.01072083206501
1.0111404523454
1.01167063782833
1.01233249465388
1.01312596189563
1.01403322224162
1.01499457733602
1.01589803285685
1.01674265490015
1.01748931044687
1.01809597318168
1.01847977813735
1.01863444488527
1.01844648655306
1.01735789696062
1.01729946632295
1.01758523107247
1.01849209895895
1.01982601860004
1.0215948928581
1.02371995670334
1.02617968724308
1.02893726307246
1.03197321161066
1.03526600563615
1.03879944101161
1.04255710157619
1.04652394126801
1.05068457003894
1.0550236239721
1.05952522468511
1.06417299776176
1.06895019785397
1.07383988252953
1.07882492431717
1.08388815349043
1.08901252061232
1.09418125722699
1.09937803331595
1.10458710561719
1.10979345139398
1.11498288474517
1.12014215384789
1.12525901702861
1.13032229851329
1.13532192361433
1.14024893496161
1.14509549091871
1.14985484873537
1.15452133380648
1.15909029805113
1.16355806879697
1.16792189120277
1.17217986548789
1.17633088117416
1.1803745500988
1.18431113949443
1.18814150598444
1.19186703273209
1.19548956824111
1.19901137177031
1.20243505753829
1.20576355442542
1.20900004893923
1.21214796855238
1.21521092948487
1.21819273604791
1.2210973138835
1.22392875088017
1.22669121698734
1.22938908542454
1.23202669740092
1.2346087848621
1.23713983018317
1.23962513714078
1.24206919242124
1.24447843853383
1.2468569292159
1.24921359560656
1.25155061832319
1.25388273795973
1.25620603346308
1.25854958164647
1.26089179698566
1.263297969913
1.26569396972299
1.26823598384763
1.27070452288428
1.27348497962195
1.27595291314092
1.27908975134711
1.28190256999837
1.28496772967593
1.28796281495159
1.29097894116036
1.29390626714536
1.29668585362813
1.2992417685223
1.30135596825893
1.30289715386056
1.30373763770737
1.30371983088349
1.30277233062395
1.30080603045515
1.29804111914336
1.29457741787277
1.29019019524941
1.28458168920893
1.27750648231663
1.26788712930568
1.25481343072485
1.23450324370893
1.20540576265716
1.16513035325545
1.11046385993392
1.03757640697522
0.948526740744211
0.858645208478765
0.813931367138224
0.823592657129742
0.843972553644199
0.89156098751325
0.90844525655492
0.926722077989379
0.926485297220443
0.951819030971822
0.976390771360513
0.987812659327958
0.99356916092599
0.997746031574312
1.00111738756994
1.00351188838638
1.00539777756812
1.00683817033029
1.0079018123709
1.00868699030954
1.00929726684893
1.00974763866822
1.01011506458786
1.01041523768735
1.01073844377725
1.01114329587201
1.01165245890994
1.01228767613356
1.01305053310058
1.01392523471247
1.01485729472447
1.01573942879579
1.01656655376642
1.01729970164736
1.01789819491067
1.01827956907018
1.01843591343569
1.01826257697447
1.0172927931005
1.01727785743548
1.01758971203714
1.01851226291166
1.01985180612912
1.02162143690847
1.02374349930564
1.02619816266617
1.02894906375111
1.03197729099658
1.03526151671529
1.03878576310217
1.04253373421806
1.04649050420769
1.05064076711677
1.05496924553565
1.05946014781425
1.06409719625615
1.0688637336514
1.07374290223595
1.07871765298954
1.08377089283696
1.08888564363903
1.09404520218107
1.09923329668467
1.10443423452843
1.10963303558612
1.11481554830114
1.11996854693058
1.12507980776287
1.13013816520379
1.1351335474258
1.14005699318781
1.14490065090359
1.14965776252632
1.15432263355062
1.15889059216766
1.16335793888914
1.16772188970516
1.17198051400057
1.17613266943077
1.18017793551511
1.18411654724776
1.18794932954389
1.19167763481393
1.19530328207988
1.19882850259116
1.20225588573706
1.20558833448802
1.20882901535715
1.21198133901428
1.21504890148666
1.21803549183517
1.22094502475734
1.22378158220499
1.22654932766203
1.2292526349275
1.23189584533481
1.23448370151499
1.23702068911808
1.23951214040265
1.24196254356777
1.24437840236159
1.24676374988973
1.24912765113351
1.25147219012119
1.25381241653155
1.25614411573349
1.25849716946836
1.26084881728911
1.26326617828278
1.26567212187605
1.26822763580694
1.27070512079184
1.27350161996156
1.27597508103162
1.27910885260388
1.2818904007885
1.28492908965974
1.28788905694993
1.29086997948093
1.29375509399709
1.29648460401514
1.29897804422307
1.30101973487709
1.30248511984123
1.30324799318601
1.30315467950472
1.30213942445193
1.30012087856617
1.29731211419591
1.29379029831058
1.28932361605703
1.28360945781832
1.27638316593668
1.26654689633269
1.25315754662335
1.23249546826372
1.20308684658387
1.16257786448594
1.10792406549416
1.03573746862117
0.948757328223861
0.862365284208023
0.819394086250536
0.828027448588147
0.846758312706081
0.892569950763341
0.909094798088169
0.927452431196048
0.927673525677263
0.952791846292889
0.976824211655397
0.987778418349316
0.993537575908937
0.997663726150464
1.00103954355713
1.00345281081246
1.00534912931258
1.0068040609627
1.00788557420383
1.00868534013762
1.00930832890265
1.00976796411692
1.01014115912811
1.01044267789218
1.01075915747031
1.01114831599396
1.01163511020957
1.01224198956426
1.01297235619933
1.01381244038388
1.01471295160631
1.01557170558931
1.01637954415126
1.0170976319608
1.01768673210289
1.01806537087405
1.0182254050481
1.01807048712403
1.01722130553051
1.01724907636766
1.01759024211123
1.01852923074698
1.01987514261544
1.02164571946504
1.02376477359726
1.02621414648364
1.02895803696007
1.03197811567656
1.03525329273032
1.03876783233145
1.04250557187697
1.04645171102622
1.05059103583608
1.05490836244894
1.05938798874539
1.0640137371023
1.0687690456915
1.07363714506474
1.07860106701699
1.08364379786814
1.08874843304635
1.09389833670517
1.09907729720995
1.10426967428227
1.10946053189866
1.11463575412477
1.11978214236244
1.12488749170763
1.12994064737603
1.13493154081634
1.13985120712418
1.14469178476963
1.14944650022618
1.15410963872646
1.1586765042103
1.16314336970259
1.1675074212278
1.17176669642923
1.17592002009785
1.17996693837076
1.18390765288817
1.18774295570986
1.19147416733278
1.19510307607615
1.19863188474709
1.20206315487226
1.20539976444382
1.20864485840793
1.21180182619108
1.21487424570743
1.21786589179018
1.22078066739797
1.22362264699122
1.22639598700293
1.22910506135503
1.23175421113197
1.23434818928215
1.23689148450403
1.23938945702539
1.2418465961033
1.24426946582508
1.24666207737467
1.24903362762123
1.25138610036322
1.25373485163306
1.2560753487831
1.25843826368933
1.26079965938067
1.26322845859506
1.26564444339252
1.26821334090965
1.27069940188934
1.27351100903398
1.27598907402701
1.27912201641385
1.28187224797194
1.28488288670797
1.28780395550354
1.29074494890576
1.29358227553723
1.29625567712954
1.298680607043
1.3006436879382
1.3020270759301
1.30270632619824
1.30253201320412
1.30144408340282
1.29936799904231
1.29650881176023
1.29292135387019
1.28836677555625
1.28253645860697
1.27514580309862
1.26507642385593
1.25135579545886
1.23033038757475
1.20060485421539
1.15986861327523
1.10526004810536
1.03384216128894
0.948998709510342
0.866091053694011
0.824843434033234
0.832505579509937
0.849653508156222
0.893695119325446
0.909821504904205
0.928239522208919
0.928892762213459
0.953752187317358
0.97731830660109
0.987841868357294
0.993507495986109
0.997616048133686
1.00095753210936
1.00339286493205
1.00530043252083
1.00676972755348
1.00786990184865
1.00868522699369
1.00932202354377
1.00979170274989
1.01017114522803
1.0104742122188
1.01078373945978
1.01115647756947
1.01161980419054
1.01219696231328
1.01289330781214
1.0136970583671
1.0145640117792
1.0153973932761
1.01618416652344
1.01688569968883
1.01746432943881
1.01784000217362
1.01800563312897
1.01787171328219
1.01714301952039
1.01721263803448
1.01758611320043
1.01854222471113
1.01989540139297
1.02166725292263
1.02378347151052
1.02622750123421
1.02896421926472
1.03197589050317
1.03524170451184
1.0387461796031
1.04247330113458
1.04640839993457
1.05053636400881
1.05484210887111
1.05931002540735
1.06392403992079
1.06866769059766
1.07352429850301
1.07847697836554
1.08350879784238
1.08860292753883
1.09374280050828
1.09891226665858
1.10409573935571
1.109278327882
1.11444595302751
1.11958544434187
1.12468461662076
1.12973232666766
1.13471850986351
1.13963419816837
1.14447152050293
1.14922368812192
1.15388496612083
1.15845063418216
1.16291693770885
1.16728103250718
1.17154092411413
1.17569540398982
1.17974398433916
1.18368683282335
1.1875247079617
1.19125889758583
1.19489115859619
1.19842366461794
1.20185894844505
1.20519986239409
1.20844952842341
1.21161131448946
1.21468878047993
1.21768568590177
1.22060592100699
1.22345355205299
1.22623272788334
1.22894782191406
1.23160317447602
1.2342035480904
1.23675343398423
1.23925821913973
1.24172239303244
1.24415257787635
1.24655276140267
1.24893226788914
1.25129297750175
1.25365054440254
1.25600009863639
1.25837307393173
1.26074436025585
1.26318464500539
1.26561056807889
1.26819250048016
1.27068655614875
1.27351219087154
1.275993346284
1.27912740450108
1.28184668543227
1.28482844796681
1.28770775193482
1.29060485442693
1.29338948527805
1.29600136461194
1.29835238553351
1.30023141237811
1.30152722914551
1.30211739667313
1.30185702984083
1.3006917570662
1.29855285084569
1.29563650707437
1.29197573450771
1.28732473083091
1.28136780504127
1.27379987449555
1.26348223087815
1.24941674869116
1.2280195586802
1.19797507040839
1.1570228358501
1.1024974199711
1.03191847895975
0.949271690663425
0.869827033051203
0.830270901244519
0.837010400536567
0.85263256524162
0.894915050105889
0.910619132343745
0.929074505276548
0.93014181552485
0.95464887621465
0.977859296088368
0.988016680694324
0.993456849540961
0.997626159772336
1.00087591995184
1.00333168041973
1.00525225705629
1.00673601229996
1.00785554617882
1.00868727282962
1.00933887943485
1.00981934208332
1.01020546220959
1.01051018818994
1.01081252198812
1.01116824128398
1.01160720835758
1.0121535218266
1.01281457817675
1.01358053123643
1.01441211819251
1.01521823035301
1.01598223071816
1.01666582829584
1.01723306752487
1.01760560556231
1.01777866147394
1.01766762413889
1.01705811540572
1.01716844853221
1.01757690080056
1.01855070551457
1.01991211859072
1.0216856542278
1.02379933607362
1.02623809480794
1.02896761182431
1.03197074838142
1.03522701715249
1.03872119998737
1.04243744511616
1.04636122212597
1.05047753003863
1.05477138880623
1.05922728621989
1.06382925580288
1.06856093845501
1.07340574693007
1.07834688051718
1.08336748938827
1.08845082030213
1.09358037617182
1.09874006936401
1.10391436780618
1.10908842700832
1.11424820541013
1.11938056163839
1.12447333110432
1.12951538309193
1.13449665776746
1.13940818475204
1.14424208414095
1.14899155261071
1.15365083566244
1.15821518916075
1.16268083121381
1.16704488762758
1.1713053319373
1.17546092226585
1.17951113678182
1.18345610896811
1.18729656351666
1.19103375515783
1.1946694095588
1.19820566964161
1.20164503924403
1.20499034509793
1.2082446848347
1.21141140494867
1.21449404655019
1.2174963530222
1.22042220128035
1.22327564877371
1.2260608362018
1.22878213568514
1.23144388612377
1.23405085853141
1.23660754591226
1.23911936016266
1.241590789872
1.24402851197301
1.24643648914391
1.24882416622593
1.25119331695144
1.25355988008288
1.25591863463169
1.25830173625218
1.26068291197299
1.26313455751425
1.26557015009319
1.2681645745433
1.27066587058482
1.27350434247658
1.27598667022122
1.27912350807654
1.2818124034324
1.28476494680268
1.28760031836117
1.29045018942957
1.29317777847672
1.29572323975041
1.29799547308554
1.29978552900045
1.30098870714369
1.30148478807223
1.30113366436907
1.29988655514993
1.29767950116347
1.2946990799335
1.29095713379368
1.28620099878705
1.28010694228256
1.27234902886908
1.2617687801783
1.24734661065153
1.2255717973887
1.19520973757326
1.15405747925437
1.09965825531023
1.0299906652947
0.949594306102041
0.873577843714722
0.835671313180022
0.841531456923951
0.855682670091345
0.896218863496163
0.911484696536918
0.9299512271039
0.931420002662351
0.955451101692197
0.978428196064142
0.98829051805782
0.993404370674228
0.997688039206879
1.0008070201114
1.00326952909606
1.00520512663056
1.00670364298828
1.00784312281838
1.00869193049437
1.00935922598627
1.00985112761322
1.01024425581061
1.01055064724505
1.01084555795897
1.01118380778739
1.01159772800364
1.01211229555217
1.01273700316934
1.01346389887511
1.0142584898289
1.0150355449914
1.01577515799929
1.01643955820086
1.01699462775294
1.01736391758811
1.01754614225269
1.01745938460154
1.01696689841652
1.01711656043492
1.01756233230373
1.01855428945025
1.01992495060678
1.02170062980779
1.02381216729809
1.02624582228243
1.02896821469214
1.03196279434066
1.0352094421597
1.03869321099145
1.04239842713205
1.04631070750967
1.0504151703008
1.05469694454779
1.05914061879296
1.06373033619111
1.06844984163587
1.07328264003435
1.07821201628676
1.08322120356247
1.08829352516393
1.09341255428952
1.09856226622785
1.10372718401875
1.10889251004811
1.11404424114989
1.11916926586974
1.12425544115049
1.12929164973196
1.13426783757607
1.13917503298442
1.14400534822947
1.14875196637476
1.15340911423037
1.15797202466905
1.16243688923462
1.16680080436262
1.1710617121034
1.17521833764136
1.17927012539867
1.18321717485766
1.18706017692959
1.19080035336594
1.19443939837697
1.19797942364824
1.20142290426553
1.2047726407235
1.20803170605854
1.21120342486191
1.21429131889809
1.21729911489489
1.22023067587817
1.22309004979567
1.22588136860131
1.22860900219518
1.23127728724309
1.23389100188233
1.23645463996197
1.23897363589984
1.24145247612054
1.2438978877905
1.24631380699822
1.24870979011946
1.25108750252616
1.2534631490501
1.25583114969431
1.25822433222903
1.26061527797943
1.26307801633272
1.26552287660876
1.26812909417811
1.27063674161247
1.27348678824575
1.27596809262171
1.27910905074909
1.28176815306268
1.28469140848946
1.28748120049246
1.29028099949424
1.29294767554654
1.29542226242118
1.29761126013415
1.2993078606802
1.30041375675804
1.30081113490863
1.30036484529533
1.29903153650234
1.29675095328052
1.29369936559788
1.28986821270258
1.28499804990137
1.27875623342738
1.27079578359724
1.25993932839087
1.24515024332144
1.22299439849992
1.19231941673154
1.15098758478299
1.09676226398791
1.02807985374174
0.949981509382652
0.87734698411494
0.841040880462875
0.846061293656557
0.858795788638854
0.897600842107514
0.912417042983878
0.930865655018942
0.932725503822762
0.956156711660339
0.97899837623327
0.988644554813872
0.99338407481849
0.997765919812116
1.00076914392191
1.00320764013223
1.00515938539525
1.00667313298164
1.00783305653032
1.00869947312072
1.00938319646885
1.00988708307505
1.01028745645606
1.01059547300866
1.01088279560207
1.0112032833561
1.01159165415674
1.0120737601876
1.01266123126145
1.01334798302386
1.01410411196696
1.01485043617392
1.01556414620173
1.0162081977325
1.01675043763232
1.01711640499309
1.01730942471369
1.01724795363256
1.01686970873597
1.01705713755962