/*--------------------------------*- C++ -*----------------------------------*\
| =========                 |                                                 |
| \\      /  F ield         | OpenFOAM: The Open Source CFD Toolbox           |
|  \\    /   O peration     | Version:  4.1                                   |
|   \\  /    A nd           | Web:      www.OpenFOAM.org                      |
|    \\/     M anipulation  |                                                 |
\*---------------------------------------------------------------------------*/
FoamFile
{
    version     2.0;
    format      ascii;
    class       surfaceScalarField;
    location    "30000";
    object      phi;
}
// * * * * * * * * * * * * * * * * * * * * * * * * * * * * * * * * * * * * * //

dimensions      [0 3 -1 0 0 0 0];

internalField   nonuniform List<scalar> 
41710
(
4.35538138013893e-05
-4.94919300584167e-06
4.57812788665569e-05
-2.22746506516465e-06
1.90302870539392e-05
2.67509918126029e-05
-8.26894600645542e-06
2.72992330604129e-05
-1.72373508406229e-05
8.96840483417799e-06
-1.45187220390298e-05
-2.7186288015954e-06
-1.10709940931764e-05
-3.44772794587399e-06
-8.99664226489581e-06
-2.07435182827375e-06
-7.45616217618535e-06
-1.54048008869112e-06
-6.43889326313984e-06
-1.01726891305198e-06
-5.6566511710862e-06
-7.82242092069301e-07
-5.05453034740714e-06
-6.02120823664025e-07
-4.71569795307487e-06
-3.38832394341937e-07
-4.64798928775495e-06
-6.77086653117765e-08
-4.84976398533383e-06
2.01774697585039e-07
-5.43145469772645e-06
5.81690712388085e-07
-6.43299988546228e-06
1.00154518774848e-06
-7.91637926441242e-06
1.48337937894847e-06
-9.74221091141944e-06
1.82583164700255e-06
-1.17425691989375e-05
2.00035828751994e-06
-1.38477275915697e-05
2.10515839265894e-06
-1.59335122781804e-05
2.08578468663461e-06
-1.78202742603707e-05
1.88676198219089e-06
-1.92973021149675e-05
1.47702785461638e-06
-2.03053109402174e-05
1.00800882524291e-06
-2.10647516098341e-05
7.59440669624211e-07
-2.13986219573755e-05
3.33870347530683e-07
-2.11389908826094e-05
-2.59631074778864e-07
-2.02750987272693e-05
-8.63892155331294e-07
-1.90571143840083e-05
-1.21798434327878e-06
-1.76143827532304e-05
-1.44273163076328e-06
-1.81169386713128e-05
5.0255591808558e-07
-2.80777483678399e-05
9.96080969653875e-06
-3.80777632753792e-05
1.00000149075207e-05
-4.63222477726851e-05
8.24448449732237e-06
-5.29500916802473e-05
6.62784390757608e-06
-5.84469201174969e-05
5.49682843723993e-06
-6.30266678302563e-05
4.5797477127695e-06
-6.69269067616763e-05
3.9002389314226e-06
-7.02717282205191e-05
3.34482145885173e-06
-7.31629220350297e-05
2.8911938144951e-06
-7.56578550590838e-05
2.49493302407339e-06
-7.7798981904846e-05
2.14112684577762e-06
-7.96115739567459e-05
1.81259205190778e-06
-8.11137770213096e-05
1.50220306456019e-06
-8.23175544071425e-05
1.20377738584673e-06
-8.32325885846444e-05
9.1503417750775e-07
-8.38665431108387e-05
6.33954526190919e-07
-8.42245747237707e-05
3.5803161293449e-07
-8.43108161301497e-05
8.62414063533528e-08
-8.41317107945145e-05
-1.79105335676127e-07
-8.36954624774397e-05
-4.36248317044081e-07
-8.30113772496417e-05
-6.84085227830645e-07
-8.20902987958882e-05
-9.21078453759342e-07
-8.09442467923122e-05
-1.14605200359468e-06
-7.95863095814234e-05
-1.35793721084447e-06
-7.80305053012145e-05
-1.55580428021008e-06
-7.62916137019743e-05
-1.7388915992379e-06
-7.43849938008495e-05
-1.90661990111624e-06
-7.23263959913183e-05
-2.05859780953398e-06
-7.01317742687132e-05
-2.19462172261491e-06
-6.7817107599975e-05
-2.31466666873322e-06
-6.53982325833936e-05
-2.4188750166058e-06
-6.28906923996642e-05
-2.50754018375254e-06
-6.03096037246199e-05
-2.58108867503672e-06
-5.7669543916691e-05
-2.64005980792792e-06
-5.49844573514694e-05
-2.68508656523122e-06
-5.22675827280173e-05
-2.71687462344785e-06
-4.95313986506103e-05
-2.73618407737469e-06
-4.67875884201748e-05
-2.74381023042512e-06
-4.40470203036223e-05
-2.74056811653189e-06
-4.13197436003337e-05
-2.72727670328828e-06
-3.86149982194769e-05
-2.70474538084199e-06
-3.59412349105984e-05
-2.67376330887762e-06
-3.33061454013922e-05
-2.63508950921444e-06
-3.07167022073553e-05
-2.58944319402822e-06
-2.81792025719916e-05
-2.53749963537788e-06
-2.56993221326507e-05
-2.47988043935134e-06
-2.3282164895213e-05
-2.41715723743484e-06
-2.09323340007381e-05
-2.34983089447539e-06
-1.86539780697408e-05
-2.27835593099569e-06
-1.64508821142991e-05
-2.20309595543141e-06
-1.43264946937037e-05
-2.12438742059976e-06
-1.22840703136722e-05
-2.04242438006681e-06
-1.03266370892334e-05
-1.95743322445474e-06
-8.45721116765312e-06
-1.86942592157645e-06
-6.67878395607145e-06
-1.77842721161358e-06
-4.99454788882868e-06
-1.68423606728299e-06
-3.40768026019617e-06
-1.58686762863171e-06
-1.92216640179248e-06
-1.48551385842548e-06
-5.41796658508103e-07
-1.38036974330462e-06
7.27859023736983e-07
-1.26965568221826e-06
1.8819283036741e-06
-1.15406927993513e-06
2.91154053182862e-06
-1.02961222813068e-06
3.81074599148438e-06
-8.99205459634926e-07
4.56428803125479e-06
-7.53542039749651e-07
5.16614552488038e-06
-6.01857493598129e-07
5.58802454234318e-06
-4.21879017469777e-07
5.82930391090355e-06
-2.41279368540804e-07
5.83489736480984e-06
-5.5934538846813e-09
5.62631070277515e-06
2.08586662019063e-07
5.07443581267982e-06
5.51874890095501e-07
4.2660574987388e-06
8.08378313942181e-07
2.90574376190389e-06
1.36031373678704e-06
1.29679326436444e-06
1.60895049754864e-06
-1.23698079341008e-06
2.53377405770902e-06
-3.8250285425139e-06
2.5880477491185e-06
-8.07959396692591e-06
4.25456542443513e-06
-8.48813831964169e-06
4.08544352691479e-07
-7.96067751744083e-06
-5.27460802184444e-07
-6.29927693125184e-06
-1.6614005861767e-06
-4.0480006005061e-06
-2.25127633073207e-06
-1.24579402713219e-06
-2.80220657337655e-06
2.00712339034483e-06
-3.2529174174821e-06
5.70281159662464e-06
-3.69568820625834e-06
1.01001260648901e-05
-4.39731446824939e-06
1.49066019309001e-05
-4.80647586601104e-06
1.98732758032107e-05
-4.96667387230689e-06
2.49151381766321e-05
-5.04186237340406e-06
2.9876167369596e-05
-4.96102919300343e-06
3.45862835005366e-05
-4.71011613095455e-06
3.84145126576976e-05
-3.8282291571771e-06
4.12949702577285e-05
-2.88045760002773e-06
4.37552517162018e-05
-2.46028145847895e-06
4.60559572199301e-05
-2.30070550375312e-06
4.8319229388978e-05
-2.2632721690478e-06
5.11055261427214e-05
-2.78629675373067e-06
5.4914760439453e-05
-3.80923429671466e-06
6.17405467051997e-05
-6.82578626575869e-06
7.0947832823803e-05
-9.2072861186155e-06
8.28531721110383e-05
-1.19053392872267e-05
9.87872510635992e-05
-1.5934078952565e-05
0.000120632924298877
-2.18456732352798e-05
0.000147540295865144
-2.69073715662587e-05
0.000167267529823585
-1.97272339584356e-05
0.000151617592918956
1.56499369046328e-05
0.000107849959490021
4.37676334289245e-05
6.74624292613612e-05
4.03875302286618e-05
3.69723782164799e-05
3.04900510448832e-05
-1.6322425790532e-06
0.000152321030749915
-7.68237739018533e-06
0.000150440595430207
-3.47029745422973e-07
8.74738826189508e-05
8.97177046238643e-05
5.04615758246588e-06
0.0001097269580969
-3.78871403032767e-05
5.19017027199181e-05
-3.92211626662512e-05
-1.38460643859832e-06
-3.0984216959468e-05
-1.16846736526721e-05
-2.54148282557893e-05
-7.64374053195077e-06
-2.14196708944404e-05
-5.53563745006063e-06
-1.87261414689271e-05
-3.71079833855477e-06
-1.67313088339884e-05
-2.77707472700636e-06
-1.52808559014753e-05
-2.05257375620019e-06
-1.45720032507219e-05
-1.04768504506799e-06
-1.46468791020048e-05
7.16718593972078e-09
-1.55470860598399e-05
1.10198165538911e-06
-1.75359821275242e-05
2.57058678004574e-06
-2.07342881204017e-05
4.19985118064792e-06
-2.51984419258614e-05
5.94753318444103e-06
-3.0546216725637e-05
7.17360644673277e-06
-3.63369068018203e-05
7.79104836376052e-06
-4.23497777803359e-05
8.11802937113385e-06
-4.82670168929144e-05
8.00302379922814e-06
-5.36700479377864e-05
7.28979302710146e-06
-5.81676774411929e-05
5.97465735802311e-06
-6.17122242152805e-05
4.55255559935525e-06
-6.4664340537554e-05
3.71155699188563e-06
-6.66691284202053e-05
2.33865823020958e-06
-6.73945865097097e-05
4.65827014753207e-07
-6.68949895081427e-05
-1.36348915689914e-06
-6.58378683010029e-05
-2.27510555040329e-06
-6.6150966992223e-05
-1.12963293953205e-06
-7.38886726765563e-05
8.24026160243415e-06
-9.90492436449631e-05
3.51213806649768e-05
-0.000124017485168264
3.4968256430793e-05
-0.0001437146370225
2.79416363515335e-05
-0.000159256376174588
2.21695830596395e-05
-0.000171815456122919
1.80559083855759e-05
-0.000182114852748833
1.48791443387354e-05
-0.000190693686393233
1.24790725758224e-05
-0.000197881365125756
1.05325001912911e-05
-0.00020390648984963
8.91631853835966e-06
-0.000208912999422469
7.5014425968659e-06
-0.000213000779614284
6.22890703760386e-06
-0.000216236445677715
5.04825811533314e-06
-0.000218668693039745
3.93445042655778e-06
-0.000220334201446263
2.86928579227547e-06
-0.000221264531010249
1.84536374152735e-06
-0.000221489234335194
8.5865785114613e-07
-0.000221032510041588
-9.86926807403506e-08
-0.000219909482312045
-1.03678632318456e-06
-0.000218141780357615
-1.94680729009626e-06
-0.000215760213338567
-2.81781533605346e-06
-0.000212795696681259
-3.64860188511179e-06
-0.000209280970965049
-4.4358041699031e-06
-0.000205250546784488
-5.17647618415252e-06
-0.000200740418497669
-5.86806549763114e-06
-0.00019578774772598
-6.50847505195353e-06
-0.000190430510185423
-7.09612913974579e-06
-0.000184707133576867
-7.62999650970675e-06
-0.000178656140952079
-8.10959043433826e-06
-0.00017231580934795
-8.53495332665669e-06
-0.00016572385577868
-8.9066202380303e-06
-0.000158917153605473
-9.22557718976854e-06
-0.000151931484982886
-9.49320880630936e-06
-0.000144801330760307
-9.71124289764628e-06
-0.000137559699204914
-9.88169136334431e-06
-0.000130237991128003
-1.00067946421233e-05
-0.000122865902190568
-1.00889635608988e-05
-0.000115471357962088
-1.0130728305826e-05
-0.000108080481346449
-1.01346868460909e-05
-0.000100717586917411
-1.0103462545574e-05
-9.34052015924629e-05
-1.0039662028328e-05
-8.61641076077e-05
-9.94583936560102e-06
-7.90134034775174e-05
-9.82446743902241e-06
-7.19705819308001e-05
-9.6779110559474e-06
-6.50516235091392e-05
-9.50840161573405e-06
-5.82710988197861e-05
-9.31802432467297e-06
-5.16422853249127e-05
-9.10869393424555e-06
-4.51772848232296e-05
-8.8821577391399e-06
-3.88871672440045e-05
-8.63994847371176e-06
-3.27820916327232e-05
-8.38343154230771e-06
-2.68714766096298e-05
-8.11371097856657e-06
-2.11641174989089e-05
-7.8317465313398e-06
-1.56684249868655e-05
-7.53811689207314e-06
-1.0392495698949e-05
-7.23336251230821e-06
-5.34442010970836e-06
-6.91750151078092e-06
-5.32141285359469e-07
-6.59070603589666e-06
4.03533786729714e-06
-6.25171522002971e-06
8.34859718934613e-06
-5.90012695060842e-06
1.23972594092864e-05
-5.53417607837698e-06
1.61699954205669e-05
-5.15310575456209e-06
1.96523945210927e-05
-4.75205478269734e-06
2.28292674107785e-05
-4.33094216962557e-06
2.56792646241301e-05
-3.8796094415215e-06
2.81814049100905e-05
-3.40134574563356e-06
3.03017066226986e-05
-2.87384375234315e-06
3.20114292895158e-05
-2.31158016036843e-06
3.32533450804511e-05
-1.66379480834152e-06
3.39920560591317e-05
-9.79990347220444e-07
3.41342859076787e-05
-1.47823302466003e-07
3.36568331335059e-05
6.86039436232322e-07
3.23438936398008e-05
1.86481438383749e-06
3.01895187969794e-05
2.96275315682225e-06
2.674734390216e-05
4.80248863158347e-06
2.21927304317121e-05
6.1635639680887e-06
1.55906589192187e-05
9.13584557019655e-06
7.65200678835185e-06
1.05266998800098e-05
-2.56077961869774e-06
1.44673518314996e-05
-4.10207209204545e-06
1.94983682601963e-06
-2.18897047166195e-06
-2.4405624226105e-06
2.29867460395241e-06
-6.14904566180031e-06
8.19948410217121e-06
-8.15208582896702e-06
1.52696934893173e-05
-9.87241596047036e-06
2.33064733630799e-05
-1.12896972912794e-05
3.2351014748997e-05
-1.27402295921586e-05
4.28141416019691e-05
-1.48604413212074e-05
5.41491432543559e-05
-1.6141477518343e-05
6.58797927217334e-05
-1.66973233396966e-05
7.77963239990021e-05
-1.69583936507704e-05
8.96168817748876e-05
-1.67815869688528e-05
0.00010093186042827
-1.60250947843079e-05
0.000110574521325224
-1.34708900540906e-05
0.000118246534931736
-1.05524712065399e-05
0.000124734645896643
-8.94839242340505e-06
0.000130594228535539
-8.16028814263721e-06
0.000136253376308894
-7.9224199424023e-06
0.000142730861339948
-9.26378178481247e-06
0.000151388548225133
-1.24669211819227e-05
0.000165837698363552
-2.12749364041713e-05
0.000185868347301187
-2.9237935056278e-05
0.000212256666129188
-3.82936581152345e-05
0.000247296304299083
-5.09737171224761e-05
0.000294238042584415
-6.87874115206213e-05
0.000352401033629239
-8.50703626111185e-05
0.000403669658245053
-7.09958585742364e-05
0.000400647542091821
1.86720530578711e-05
0.000335118027023946
0.000109297148496796
0.000245679193575445
0.000129826363677156
0.000167718966540133
0.000108450278080175
1.64988775954767e-05
0.000277032132538904
2.42066397034447e-06
0.000266152637049547
1.0532465743924e-05
0.000182053385822379
0.000173816955851017
4.86383271332937e-05
0.000243142016785982
-4.30672107887178e-05
0.000143607240641932
-6.00158154372981e-05
1.55639982100125e-05
-4.96907890359137e-05
-2.20097000540478e-05
-4.11989620965867e-05
-1.61355674712845e-05
-3.51849660953291e-05
-1.15496334513195e-05
-3.10768571457186e-05
-7.81890728813531e-06
-2.80974664685763e-05
-5.75646540413578e-06
-2.60363436765037e-05
-4.11369654828775e-06
-2.51857944401326e-05
-1.8982342814671e-06
-2.5638464732397e-05
4.59837478255733e-07
-2.74981240933303e-05
2.96164101631376e-06
-3.1143128261686e-05
6.21559094835769e-06
-3.67469971793316e-05
9.80372009826059e-06
-4.42790570880882e-05
1.34795930931595e-05
-5.31189911408187e-05
1.60135404994477e-05
-6.2587103157412e-05
1.72591603803585e-05
-7.23096397465116e-05
1.78405659602424e-05
-8.18203210450928e-05
1.7513705097803e-05
-9.05773748427454e-05
1.60468468247496e-05
-9.81835020403167e-05
1.35807845556378e-05
-0.000104681881253152
1.10509348121445e-05
-0.000110468552345146
9.49822808384731e-06
-0.000115152967808614
7.02307369367576e-06
-0.000118413168981002
3.72602818709089e-06
-0.000120492912380916
7.16254243073019e-07
-0.000122727662958731
-4.03549725690048e-08
-0.0001288266347075
4.96933880922681e-06
-0.000145752012616992
2.51656395119082e-05
-0.000180135531194838
6.95048992428095e-05
-0.000212621786916779
6.74545121527197e-05
-0.000237052287480276
5.2372136915016e-05
-0.000255632645232196
4.07499408115995e-05
-0.000270089392665367
3.25126558187344e-05
-0.000281509493822476
2.62992454958417e-05
-0.000290599773170482
2.15693519238401e-05
-0.000297807295279771
1.77400223005998e-05
-0.000303429758410301
1.45387816688775e-05
-0.000307665391130148
1.1737075316721e-05
-0.000310654234831295
9.21775073876366e-06
-0.000312497507425872
6.89153070994157e-06
-0.000313273188807127
4.71013180779905e-06
-0.000313043775350874
2.63987233606825e-06
-0.000311862174297648
6.63762688280595e-07
-0.000309778689465001
-1.22482698149469e-06
-0.000306843908145753
-3.03347400000784e-06
-0.000303105830779301
-4.77486368960846e-06
-0.000298611245255559
-6.44139281385772e-06
-0.000293406829792966
-8.02223079862515e-06
-0.000287539621838114
-9.51580983996021e-06
-0.000281056986828224
-1.09184391798399e-05
-0.000274006504340955
-1.22269586714452e-05
-0.00026643580074438
-1.34387690942111e-05
-0.0002583923335424
-1.45519422539319e-05
-0.000249923149908527
-1.55653127736435e-05
-0.000241074639545541
-1.64785068726976e-05
-0.000231892293310174
-1.72919366696867e-05
-0.000222420475410494
-1.80067712263741e-05
-0.000212702217992528
-1.86248776559888e-05
-0.000202779040247448
-1.91487549348699e-05
-0.000192690796141771
-1.95814529120149e-05
-0.000182475551765478
-1.99264872739275e-05
-0.000172169492798744
-2.01877503300888e-05
-0.000161806860459786
-2.0369426981107e-05
-0.000151419916153181
-2.04759078675112e-05
-0.000141038931663709
-2.05117127952772e-05
-0.000130692204153116
-2.04814143566768e-05
-0.000120406092099089
-2.03895745995855e-05
-0.00011020507172609
-2.02406824013482e-05
-0.000100111810591023
-2.00391005006523e-05
-9.01472550719089e-05
-1.97890229581378e-05
-8.0330731781648e-05
-1.94944343462295e-05
-7.06800609600599e-05
-1.91590724372941e-05
-6.1211678283397e-05
-1.87864070013518e-05
-5.19407666983737e-05
-1.83796055192256e-05
-4.2881395160314e-05
-1.79415292772252e-05
-3.40466715763346e-05
-1.74746720577101e-05
-2.54488939287131e-05
-1.69812091898792e-05
-1.70997219831061e-05
-1.64628829241922e-05
-9.010351713703e-06
-1.59211168007724e-05
-1.19158006019197e-06
-1.53568885455862e-05
6.34560646548502e-06
-1.47705490380155e-05
1.35900011210593e-05
-1.41618961664485e-05
2.0530206599494e-05
-1.35309115143061e-05
2.71540044999964e-05
-1.28755131205005e-05
3.34481157507462e-05
-1.21942382013874e-05
3.93975392872268e-05
-1.14835996148703e-05
4.49854035881178e-05
-1.07409700554517e-05
5.01917616422888e-05
-9.95841283691883e-06
5.49936715686528e-05
-9.13285209599035e-06
5.93627863788203e-05
-8.2487242517385e-06
6.32662516316597e-05
-7.30481099846257e-06
6.66611588059008e-05
-6.26875092659181e-06
6.94987799326651e-05
-5.14920128711977e-06
7.17112559154418e-05
-3.87627079117252e-06
7.32258054887033e-05
-2.49453992049251e-06
7.3935107568473e-05
-8.57125382232437e-07
7.37399495468422e-05
8.81197457859225e-07
7.2434599192917e-05
3.17016473774332e-06
6.9844887260151e-05
5.55246508960766e-06
6.5572552826308e-05
9.07482306541943e-06
5.93875908190256e-05
1.23485259753297e-05
5.05345812044986e-05
1.79888551847671e-05
3.87848687323524e-05
2.22764123521726e-05
2.54905633600829e-05
2.77616572037494e-05
2.24882743970822e-05
4.95212578909352e-06
2.51044317543144e-05
-5.05671977979549e-06
3.10189245330993e-05
-1.20635384404978e-05
3.87561127479332e-05
-1.58892740437768e-05
4.79323624543807e-05
-1.904866566689e-05
5.83377619724535e-05
-2.16950968093568e-05
7.00830698648344e-05
-2.44855374845872e-05
8.3562732811211e-05
-2.83401042676142e-05
9.82808034661992e-05
-3.08595481733522e-05
0.000113724903966331
-3.21414238398064e-05
0.000129598209298677
-3.28316989830849e-05
0.000145574416527029
-3.27577941971996e-05
0.000161130332597903
-3.15810108552162e-05
0.000175017364909834
-2.73579223659808e-05
0.00018669322626653
-2.22283325632194e-05
0.000196761525974021
-1.9016692130882e-05
0.000205832836946276
-1.72315991149024e-05
0.000214513964087291
-1.66035470834092e-05
0.000223924496290899
-1.86743139884171e-05
0.000235913068355823
-2.44554932468524e-05
0.000254480949332349
-3.98428173807105e-05
0.000280255105057689
-5.5012090781644e-05
0.000314083635689158
-7.21221887467387e-05
0.000357995869297912
-9.4885950731202e-05
0.000414732392962571
-0.000125523935185263
0.000483408862222184
-0.000153746831870722
0.000548999344456886
-0.00013658634080894
0.000568465478777255
-7.94081262499367e-07
0.000520923804216439
0.000156838823057614
0.000427235594094114
0.00022351457379948
0.000329600484169513
0.000206085388004776
5.89641878655707e-05
0.000385692647431045
2.5182296828639e-05
0.000368139951940113
2.80851612348716e-05
0.000281070222939747
0.000260886684851375
0.000115770889481344
0.00040844135024439
-2.93624008968053e-05
0.000288740531020065
-7.49946278144219e-05
6.11962251276263e-05
-6.66336630624529e-05
-3.03706648060242e-05
-5.59881872925612e-05
-2.67810432411625e-05
-4.84588590120705e-05
-1.90789617318059e-05
-4.32960085944769e-05
-1.29817577056981e-05
-3.96282277556601e-05
-9.42424624294132e-06
-3.7253510847287e-05
-6.48841345662667e-06
-3.65430508307279e-05
-2.6086942979015e-06
-3.7651792023759e-05
1.56857867127982e-06
-4.0746517329411e-05
6.05636632198543e-06
-4.62829078422847e-05
1.17519814612524e-05
-5.44243584635581e-05
1.79451707195038e-05
-6.4984480442762e-05
2.40397150723536e-05
-7.70979746599338e-05
2.81270347166789e-05
-8.9873928582063e-05
3.00351143024981e-05
-0.000102798149967068
3.07647873452537e-05
-0.000115311652293945
3.0027207424694e-05
-0.00012686178025314
2.75969747839047e-05
-0.000137147515474533
2.38665197770512e-05
-0.000146312588952193
2.02160082897438e-05
-0.000154754617748113
1.79402568797769e-05
-0.000162179498341815
1.44479542873978e-05
-0.00016847723898164
1.00237688269551e-05
-0.000174231123976257
6.47013923766313e-06
-0.000181249476658979
6.97799771010707e-06
-0.00019337729530861
1.7097157458859e-05
-0.000215663845232017
4.74521894353169e-05
-0.000250337670011132
0.000104178724021912
-0.00028055448626633
9.76713284079383e-05
-0.000302082567653684
7.39002183023586e-05
-0.000317879970541809
5.6547343699732e-05
-0.000329721436415157
4.4354121692075e-05
-0.000338695403247344
3.52732123280281e-05
-0.000345455386818251
2.83293354947745e-05
-0.000350418904806235
2.27035402886065e-05
-0.000353858280669617
1.79781575322789e-05
-0.000355959370881678
1.38381655288313e-05
-0.000356853989174559
1.01123690316614e-05
-0.000356639871915509
6.67741345089832e-06
-0.000355393041319046
3.46330121133215e-06
-0.000353175655531839
4.22486548847529e-07
-0.000350046191022409
-2.46570182113177e-06
-0.00034605733412918
-5.21368387473161e-06
-0.000341255008283359
-7.83579984583893e-06
-0.000335688436943751
-1.03414350292372e-05
-0.000329405261200352
-1.27245685572373e-05
-0.000322450008569406
-1.49774834295942e-05
-0.000314868153611775
-1.70976647975798e-05
-0.000306705329226315
-1.9081263565287e-05
-0.000298007323889043
-2.09249640087288e-05
-0.000288819951400353
-2.26261415828993e-05
-0.000279188870129165
-2.41830235251142e-05
-0.000269159371194218
-2.55948117086033e-05
-0.000258776154616082
-2.68617234508314e-05
-0.000248083105542015
-2.79849857437415e-05
-0.00023712307939676
-2.89667973716168e-05
-0.000225937704785459
-2.9810252267277e-05
-0.000214567207610066
-3.05192521102291e-05
-0.000203050260756717
-3.10983997653388e-05
-0.000191423861304033
-3.15528867266051e-05
-0.000179723235919857
-3.18883757142815e-05
-0.000167981773786158
-3.21108891147997e-05
-0.000156230987096578
-3.22266945570875e-05
-0.000144500496917625
-3.22422029742236e-05
-0.000132818043280439
-3.21638679938494e-05
-0.000121209516466616
-3.19981014134178e-05
-0.000109699008750771
-3.17511901171837e-05
-9.8308883557796e-05
-3.14292256936427e-05
-8.70598589235418e-05
-3.10380475924006e-05
-7.59711054289476e-05
-3.05831878408165e-05
-6.50603560011733e-05
-3.00698218650369e-05
-5.43440258250318e-05
-2.95027371775104e-05
-4.38373407717087e-05
-2.88862905725728e-05
-3.35544770859334e-05
-2.82243929630048e-05
-2.35087082483781e-05
-2.75204408952502e-05
-1.37125630205704e-05
-2.67773544176754e-05
-4.1779618795218e-06
-2.59974840652529e-05
5.08354028283785e-06
-2.51826189631273e-05
1.40605648079014e-05
-2.43339130706525e-05
2.27417617651254e-05
-2.34517459952389e-05
3.11155544107078e-05
-2.25356888120157e-05
3.91697975550957e-05
-2.15851546586967e-05
4.68916046012573e-05
-2.05973201666823e-05
5.42668762194635e-05
-1.9569509819619e-05
6.12798818335699e-05
-1.84966052289778e-05
6.79126800355691e-05
-1.73737682574304e-05
7.41446185596602e-05
-1.61903513610095e-05
7.9951282873301e-05
-1.49395164096358e-05
8.53038516480516e-05
-1.36012930264878e-05
9.01671660425827e-05
-1.21681253929829e-05
9.44988451327686e-05
-1.06004300167756e-05
9.82458793201244e-05
-8.89623547444744e-06
0.000101343559965016
-6.97395143608454e-06
0.000103709266265074
-4.86024622056084e-06
0.000105239711712447
-2.38757082961747e-06
0.000105801185109398
3.1972406092474e-07
0.000105221912281872
3.74943756525749e-06
0.000103264511273023
7.50986609844291e-06
9.96201248042763e-05
1.27192095341344e-05
9.38639154216932e-05
1.81047353579313e-05
8.54568828748068e-05
2.63958877316289e-05
7.35960106944744e-05
3.41372845325324e-05
6.02336098950119e-05
4.11240580032132e-05
5.55279802753302e-05
9.65775540878531e-06
5.70774275159741e-05
-6.60616702040115e-06
6.23355832307923e-05
-1.73216941553348e-05
6.98678634127462e-05
-2.34215542257282e-05
7.91419806989053e-05
-2.83227829530734e-05
8.99141990856749e-05
-3.24673151961733e-05
0.000102250588336383
-3.68219267352729e-05
0.000116450991887305
-4.25405078185463e-05
0.000132138045973976
-4.65466022600441e-05
0.000148831160395188
-4.88345382610195e-05
0.000166191031068698
-5.01915696565862e-05
0.000183880398267982
-5.04471613964981e-05
0.000201373657561914
-4.907427014913e-05
0.000217566754294418
-4.35510190984975e-05
0.000231824434890818
-3.64860131596179e-05
0.000244509914398734
-3.17021716388325e-05
0.000256146171601768
-2.88678563179483e-05
0.00026733707896723
-2.77944544488444e-05
0.00027908603411756
-3.04232691387422e-05
0.000293236586304755
-3.86060454340421e-05
0.000313471466293363
-6.00776973693442e-05
0.000341052747855967
-8.25933723442267e-05
0.000376800597270475
-0.000107870038161243
0.000422306846980695
-0.000140392200441429
0.000479612617282429
-0.000182829705486994
0.000547715847553153
-0.000221850062141458
0.000614628073424292
-0.000203498566680074
0.00064728218952329
-3.3448197361495e-05
0.000624354264651017
0.000179766747929884
0.000552826599807405
0.000295042238643097
0.000462774035997958
0.000296137951814225
0.000113283943574195
0.00046691355776416
5.45446279698088e-05
0.000446136369177714
4.88623498213098e-05
0.00036723624349505
0.000339786810534033
0.000192978314953128
0.000582699278786319
2.3794172884514e-06
0.000479339428684739
-8.17165552071005e-05
0.000145292197623197
-8.11722544161087e-05
-3.09149655970172e-05
-6.95095350022044e-05
-3.84437626550721e-05
-6.10429676885469e-05
-2.75455290454627e-05
-5.52467864277474e-05
-1.8777938966541e-05
-5.12304032201225e-05
-1.34406294505911e-05
-4.88625053392836e-05
-8.85631133748222e-06
-4.85849604853913e-05
-2.88623915183212e-06
-5.06179217871466e-05
3.60153997300536e-06
-5.51745444793888e-05
1.06129890142243e-05
-6.27257605034967e-05
1.93031974854049e-05
-7.33380532333874e-05
2.85574634494715e-05
-8.65906379151005e-05
3.72922997541165e-05
-0.00010135863304038
4.28950298419226e-05
-0.000116562262152603
4.52387434147065e-05
-0.000131572154402831
4.57746795954869e-05
-0.000145807989281514
4.42630423033764e-05
-0.000158810550548971
4.05995360513731e-05
-0.000170450259968099
3.55062291961825e-05
-0.000181003818586987
3.07695669086307e-05
-0.000190898631052642
2.78350693454145e-05
-0.000200035688564359
2.35850117991007e-05
-0.000208581107582637
1.85691878451801e-05
-0.000217353179140322
1.5242210795372e-05
-0.000228085433261707
1.77102518314845e-05
-0.000243613598116256
3.26253223133829e-05
-0.000266656687094855
7.04952784139305e-05
-0.00029648478965073
0.00013400682657778
-0.000320760406733067
0.000121946945490306
-0.00033785101185599
9.09908234252561e-05
-0.000350463118204447
6.91594500481784e-05
-0.000359861475476404
5.37524789640449e-05
-0.000366871049440964
4.22827862925857e-05
-0.000371967542779055
3.34258288328545e-05
-0.000375471206523236
2.6207204032776e-05
-0.000377590359770077
2.00973107791314e-05
-0.000378472737658165
1.47205434169149e-05
-0.000378224074332718
9.86370570618876e-06
-0.000376925119204526
5.37845832269814e-06
-0.000374640155281402
1.17833728819458e-06
-0.000371425789415141
-2.79187931741865e-06
-0.000367331903473754
-6.55958776251922e-06
-0.00036240255672113
-1.0143030627352e-05
-0.000356681986798496
-1.35563697684791e-05
-0.000350216141816299
-1.6807280011424e-05
-0.000343048987934755
-1.98917224387816e-05
-0.000335222935283197
-2.28035360811476e-05
-0.000326781527878154
-2.55390722026321e-05
-0.000317768787777676
-2.8094003665757e-05
-0.000308229182399539
-3.04645693868719e-05
-0.000298207447868083
-3.26478761143604e-05
-0.000287748374773422
-3.4642096619773e-05
-0.000276896567825353
-3.64466186566586e-05
-0.000265696197201986
-3.80620940741954e-05
-0.000254190753043708
-3.94904299020224e-05
-0.000242422811504355
-4.073473891098e-05
-0.000230433820530626
-4.17992432410155e-05
-0.000218263908862456
-4.26891637783996e-05
-0.000205951722171569
-4.34105864562402e-05
-0.000193534288357437
-4.39703205407449e-05
-0.000181046912365998
-4.43757517057076e-05
-0.000168523099971216
-4.46347015095716e-05
-0.000155994510217903
-4.47552843103908e-05
-0.000143490934516618
-4.47457786755078e-05
-0.000131040300869704
-4.46145016407742e-05
-0.000118668700360441
-4.43697019226897e-05
-0.000106400434870191
-4.40194556074249e-05
-9.42580830493081e-05
-4.35715775145393e-05
-8.22625812987879e-05
-4.30335493429321e-05
-7.04333198428966e-05
-4.24124492966957e-05
-5.87882509896539e-05
-4.17148907182854e-05
-4.73440084326338e-05
-4.09469797345267e-05
-3.61160347793473e-05
-4.01142642258535e-05
-2.51187218544825e-05
-3.92217058878668e-05
-1.43655553026531e-05
-3.82736074470838e-05
-3.869263766697e-06
-3.72736459536257e-05
6.35799379546899e-06
-3.62247416274127e-05
1.63044410414788e-05
-3.5129066209137e-05
2.59585253891431e-05
-3.39879974183107e-05
3.53086974124648e-05
-3.28019180185634e-05
4.43431843425628e-05
-3.15701757421276e-05
5.30496478899923e-05
-3.0291618206127e-05
6.14150361600389e-05
-2.89627084367286e-05
6.9425072509271e-05
-2.75795461688513e-05
7.70639362261628e-05
-2.61354689458677e-05
8.4313565997346e-05
-2.46233980286289e-05
9.11534135680913e-05
-2.30301989317435e-05
9.75590536082139e-05
-2.13451564497617e-05
0.000103502167896377
-1.95444073146564e-05
0.000108947757233442
-1.76137147300503e-05
0.000113854966115228
-1.55076388985686e-05
0.000118171156239844
-1.32124255990602e-05
0.000121835376192438
-1.0638171388689e-05
0.000124765056618285
-7.7899266464127e-06
0.000126863577868503
-4.48609207983313e-06
0.000127991745525702
-8.08443596278622e-07
0.000128002288615429
3.73889447552304e-06
0.000126652604492262
8.85955022159532e-06
0.000123699706984281
1.5672107042107e-05
0.000118692552458656
2.31118898835444e-05
0.000111253695815942
3.38347443743463e-05
0.000100472185676722
4.49187946717449e-05
8.79655801438527e-05
5.36306635360762e-05
8.2139060403169e-05
1.54842751494605e-05
8.24364769012151e-05
-6.90358351842217e-06
8.66932044591604e-05
-2.15784217132688e-05
9.36165613965312e-05
-3.0344911163107e-05
0.000102561031841748
-3.72672533982998e-05
0.000113231630563231
-4.31379139176493e-05
0.000125630402926943
-4.92206990989986e-05
0.000139972764316596
-5.68828692082175e-05
0.000155941799437407
-6.25156373808567e-05
0.00017308069728182
-6.59734361054481e-05
0.000191028326692255
-6.81391990670173e-05