/*--------------------------------*- C++ -*----------------------------------*\
| =========                 |                                                 |
| \\      /  F ield         | OpenFOAM: The Open Source CFD Toolbox           |
|  \\    /   O peration     | Version:  4.1                                   |
|   \\  /    A nd           | Web:      www.OpenFOAM.org                      |
|    \\/     M anipulation  |                                                 |
\*---------------------------------------------------------------------------*/
FoamFile
{
    version     2.0;
    format      ascii;
    class       volSymmTensorField;
    location    "30000";
    object      turbulenceProperties:R;
}
// * * * * * * * * * * * * * * * * * * * * * * * * * * * * * * * * * * * * * //

dimensions      [0 2 -2 0 0 0 0];

internalField   nonuniform List<symmTensor> 
21000
(
(9.26645008449683e-05 -2.0803881530721e-06 -0 9.26945309402942e-05 -0 9.26820642131095e-05)
(0.000123230140258789 -3.10290891592575e-06 -1.33924920269471e-27 0.000123369613469491 -1.1629850885985e-29 0.000123292705689852)
(7.42540908195879e-05 -1.51834467531338e-06 6.34763635102428e-30 7.46793856617983e-05 -1.65072818702674e-26 7.44674282935758e-05)
(4.82411973430404e-06 -2.61281774895775e-08 1.63409296579735e-24 4.83960317225012e-06 5.70530846498321e-24 4.83133279223408e-06)
(1.51227690180877e-05 6.99330797346505e-08 9.08715708941865e-24 1.50058402203367e-05 2.60384434688515e-23 1.50625823719796e-05)
(1.40580583837557e-05 6.18797793332254e-08 -1.22138659291735e-24 1.38902195117068e-05 -1.89624285414689e-26 1.39732869636376e-05)
(7.35237642556065e-06 1.75432248131395e-08 1.86072778687546e-23 7.27957775598019e-06 2.96235083468058e-23 7.31571762380336e-06)
(4.74232709938109e-06 6.63089284138693e-09 9.03999697393339e-25 4.70242093289031e-06 -2.51964313424092e-27 4.72222440389506e-06)
(3.11356074686095e-06 2.72809832279105e-09 6.07526605493035e-24 3.09126581001302e-06 8.26396084416704e-24 3.10233646341003e-06)
(2.12392061038535e-06 1.26794125109382e-09 8.94337946214107e-24 2.11076563531148e-06 1.13266827391165e-23 2.11730587964599e-06)
(1.53724217581848e-06 7.20515165325737e-10 -4.25270929226824e-25 1.5287569788988e-06 1.51426466418763e-26 1.53297860363462e-06)
(1.1087524463611e-06 4.69957018078762e-10 -1.66833838326521e-24 1.10327144422564e-06 -1.8832083258033e-24 1.10600215850094e-06)
(8.5096696332896e-07 3.68565461115415e-10 -2.95398763489556e-24 8.47070841352805e-07 -4.49640490081513e-24 8.49015260861175e-07)
(7.2914381935529e-07 3.35539731359243e-10 5.54887667542881e-24 7.25890246458238e-07 7.12196136666245e-24 7.27516697076193e-07)
(6.9911684706323e-07 3.52718838508618e-10 8.45337750909711e-25 6.95912706842904e-07 1.43135271147642e-24 6.97516680776605e-07)
(7.65550475301204e-07 4.41519348092018e-10 4.45718709605478e-24 7.61719144058263e-07 5.23337068660925e-24 7.63639437775073e-07)
(9.57402634724511e-07 6.62347918768644e-10 -5.96124844430227e-24 9.51850500716673e-07 -7.01238864883197e-24 9.54634338892296e-07)
(1.32128640042405e-06 1.1333789816783e-09 -4.85850666174747e-24 1.3120343674149e-06 -7.2311639397315e-24 1.31667293007388e-06)
(1.90134865618093e-06 2.04455939583638e-09 9.51262602578667e-24 1.88505653645312e-06 1.08896607108723e-23 1.89321830828969e-06)
(2.64837850591579e-06 3.57582293089067e-09 -1.5538567289227e-24 2.62111470475928e-06 1.58685796314225e-25 2.63476145541779e-06)
(3.52089777546858e-06 6.07183309877488e-09 2.51145907070287e-24 3.47839772619462e-06 -1.51853192764764e-25 3.49965650603046e-06)
(4.46752818767559e-06 9.95375851675708e-09 -8.52594717624007e-24 4.40590715142809e-06 -1.24922278954788e-23 4.43671280445379e-06)
(5.37426522373023e-06 1.54831149915111e-08 -4.14523134934556e-24 5.29212851526033e-06 5.04918813756658e-25 5.33317612732303e-06)
(6.08264494744623e-06 2.24339950686774e-08 -4.3635912869946e-26 5.98336845764065e-06 -5.01074420876004e-26 6.0329800883437e-06)
(6.46856427107457e-06 3.00103541898932e-08 -5.19170660868991e-23 6.3603641594585e-06 -8.24618845831048e-23 6.41445577177665e-06)
(6.64998153260211e-06 3.80937324477993e-08 -4.68868874240426e-23 6.54003957596135e-06 -8.18501652209001e-23 6.59505458204354e-06)
(6.70979378809445e-06 4.6041263016182e-08 -1.43181893893073e-23 6.60415204642866e-06 -4.01370590897378e-23 6.65706417967365e-06)
(6.51907118838082e-06 5.14655068794032e-08 -2.37553361682776e-21 6.42648673168845e-06 -6.19848650233458e-21 6.47292281589816e-06)
(6.06572580669846e-06 5.28095307358362e-08 3.14227991726909e-23 5.99326007944752e-06 1.0099120290482e-22 6.02966904400051e-06)
(5.4772080088626e-06 5.06666434721947e-08 1.54921292558191e-21 5.42684381356751e-06 6.54791062022974e-21 5.45221798814548e-06)
(4.83304978823536e-06 4.60642623973043e-08 9.15007921007774e-25 4.80325979306166e-06 -1.20059849866877e-25 4.8183655205564e-06)
(4.11876138674802e-06 4.02029529717308e-08 -4.552598661654e-22 4.10472997538094e-06 4.56830634491135e-23 4.11176392477967e-06)
(6.55718469216927e-06 8.30087109778998e-08 -7.54985042016858e-22 6.54706793313472e-06 1.60564895322025e-21 6.55245417781563e-06)
(1.41353206662424e-05 2.49297631339336e-07 1.41817658203744e-21 1.41206329544977e-05 1.87296897702568e-21 1.41281335479186e-05)
(2.18338778010773e-05 4.65026940644576e-07 2.40976540223516e-21 2.18154714840456e-05 -1.88400813843707e-22 2.18251949081025e-05)
(2.97102996457331e-05 7.22504812681546e-07 -3.36971834923216e-27 2.96896044206218e-05 -4.36258359406055e-25 2.97005430290373e-05)
(3.69358275786625e-05 9.86136120395553e-07 5.7045763241935e-26 3.69142631431073e-05 5.35156340980074e-25 3.6925909755469e-05)
(4.36970433156231e-05 1.2530383572871e-06 -6.15623495535655e-26 4.36752419348138e-05 5.64967993366105e-27 4.3687179998391e-05)
(4.9857956237194e-05 1.51123363863805e-06 -1.3948469626869e-25 4.98363219672069e-05 1.10450245549756e-26 4.98484210772294e-05)
(5.55401726070038e-05 1.76033684260893e-06 -1.4978879711947e-26 5.55189277523562e-05 -7.70484366760611e-25 5.55310379711151e-05)
(6.07373691048827e-05 1.99609424925489e-06 2.54583978857808e-25 6.07167154114798e-05 -9.12313040946996e-25 6.07287500952445e-05)
(6.54925991008404e-05 2.2172268409981e-06 9.43063707405285e-27 6.54727339716293e-05 1.89557910550895e-24 6.54845720732091e-05)
(6.98029724059924e-05 2.42101092820198e-06 -1.95027965533949e-25 6.97841082050197e-05 -9.97878534645426e-25 6.97956349851099e-05)
(7.36728872167561e-05 2.60549149177002e-06 -1.1611632713216e-26 7.36552465642065e-05 -1.05899960648858e-24 7.36663291611795e-05)
(7.70920735886076e-05 2.76836690402015e-06 3.23644423838605e-25 7.70758797920523e-05 -2.19788274593208e-26 7.70863873273861e-05)
(8.00529022328795e-05 2.90776812574761e-06 8.36202462663086e-21 8.00383673690718e-05 -4.3428610305593e-22 8.00481694927466e-05)
(8.25470107704617e-05 3.02207686890899e-06 1.04722799516189e-20 8.25343224250742e-05 -4.27039419904594e-22 8.25433010667341e-05)
(8.45711194987659e-05 3.11022550119218e-06 -7.03540781676747e-21 8.45604347626541e-05 2.57836232240733e-21 8.45684856208e-05)
(8.61214796837524e-05 3.17147876028499e-06 -9.11295016970032e-21 8.61129361593503e-05 4.34899759178696e-22 8.61199628692933e-05)
(8.71879017868236e-05 3.20509640805369e-06 2.32841129817178e-25 8.71816209181059e-05 -1.2847093260253e-24 8.71875290153525e-05)
(8.77444237237112e-05 3.21000971040751e-06 7.59913119354839e-26 8.77404650009407e-05 8.0822621205803e-20 8.77451917781902e-05)
(8.78130802709452e-05 3.18753135812366e-06 -9.41324416008052e-21 8.78114321258275e-05 8.21479878628926e-20 8.78149567777793e-05)
(8.74157427570661e-05 3.13924023047217e-06 -1.12984643320053e-20 8.74163468100077e-05 -1.42350714004202e-21 8.74186740673181e-05)
(8.65751078241484e-05 3.06704136058587e-06 7.50807577996793e-21 8.65778564984065e-05 -3.58415181380236e-21 8.6579017986283e-05)
(8.53193355251738e-05 2.97327085054517e-06 9.26453643898994e-21 8.53240801433002e-05 -3.22492027558989e-22 8.53241311368059e-05)
(8.36812067084896e-05 2.86059858871664e-06 6.07649791398816e-26 8.36877644287141e-05 -1.98288280324974e-27 8.36867806345223e-05)
(8.16972726974606e-05 2.73192829490075e-06 8.82813147341084e-37 8.17054342889323e-05 -2.49668975235523e-38 8.17035080866631e-05)
(7.94069088945287e-05 2.59029459046332e-06 -7.18951170595097e-37 7.94164469768062e-05 2.20475011280151e-37 7.9413683296269e-05)
(7.68513409903085e-05 2.4387635193192e-06 -9.67344106640007e-37 7.68620182368562e-05 -1.49277303288427e-37 7.68585303359913e-05)
(7.40726875309653e-05 2.28034113591595e-06 8.06288921797429e-37 7.40842644388876e-05 -1.92946014426724e-38 7.40801697999651e-05)
(7.11130509412077e-05 2.11789350059243e-06 2.72794335975368e-26 7.11252928519055e-05 -5.49434005973239e-25 7.11207093721588e-05)
(6.8013687507031e-05 1.95408057128303e-06 -2.39745123188651e-26 6.80263706261504e-05 1.06325460052554e-24 6.80214132554666e-05)
(6.48142788923588e-05 1.79130532290641e-06 -1.70169633543265e-27 6.48271951748225e-05 -5.11659350809091e-25 6.48219730857751e-05)
(6.15523162701156e-05 1.63167824711969e-06 1.46098050959692e-27 6.15652771035842e-05 2.46450634953156e-25 6.15598914505295e-05)
(5.82626066402029e-05 1.4769967387203e-06 6.88464318393246e-21 5.82754453419293e-05 -7.51207598653465e-23 5.82699876174918e-05)
(5.49769015682943e-05 1.328738047839e-06 1.09598214260791e-21 5.49894747680667e-05 -1.09176525945403e-21 5.4984025737457e-05)
(5.17236439915752e-05 1.18806401844533e-06 -1.19976283775855e-20 5.17358320257127e-05 2.16270216410813e-22 5.17304611851433e-05)
(4.85278247527408e-05 1.0558355525736e-06 -8.70732859150089e-22 4.85395312110956e-05 1.60050046955076e-21 4.85342967098203e-05)
(4.5410938772388e-05 9.32634652947089e-07 5.19723906148132e-21 4.54220893673877e-05 -2.25656491401247e-23 4.54170383106047e-05)
(4.23910270868254e-05 8.18791873154129e-07 -4.28829964746538e-27 4.240156800447e-05 9.32905296236118e-30 4.23967370616401e-05)
(3.94827917772443e-05 7.14417197240223e-07 4.10852703952956e-27 3.94926876744032e-05 8.93796364526873e-30 3.94881039076915e-05)
(3.66977681957197e-05 6.19432530763776e-07 -3.65430109147225e-27 3.67069999808895e-05 3.92125104646944e-26 3.67026818244744e-05)
(3.40445437168183e-05 5.33604371206397e-07 -3.71108791691836e-27 3.40531062405819e-05 -3.65713366890872e-26 3.40490645633717e-05)
(3.15290078105603e-05 4.56575362012176e-07 3.2956086315744e-27 3.15369075715211e-05 2.15084602162025e-29 3.15331467657355e-05)
(2.91546216745671e-05 3.87893815127927e-07 -0 2.91618746165303e-05 -0 2.91583936690504e-05)
(2.69227001152929e-05 3.27040611809878e-07 -0 2.69293295744415e-05 -1.31558254014309e-25 2.69261230881292e-05)
(2.48326942073637e-05 2.73452988404683e-07 -0 2.48387290546805e-05 1.23160446292355e-25 2.48357881884971e-05)
(2.28824701351425e-05 2.26545084861473e-07 -0 2.28879431305094e-05 -0 2.28852564524353e-05)
(2.10685731966764e-05 1.85725090909027e-07 -0 2.10735195731401e-05 2.1730093722e-25 2.10710738008392e-05)
(1.93864828068417e-05 1.50409361394855e-07 -0 1.93909390625793e-05 -2.03007036243209e-25 1.9388719719213e-05)
(1.78308416404674e-05 1.20033301469943e-07 -0 1.78348445673693e-05 -1.90623625695966e-25 1.78328365042663e-05)
(1.63956746840827e-05 9.40598405641907e-08 -0 1.63992605460451e-05 1.77964354824079e-25 1.63974484290086e-05)
(1.50745637631254e-05 7.19849571715869e-08 -0 1.50777677074277e-05 1.66986416422029e-25 1.50761363377333e-05)
(1.38608401742277e-05 5.33420139404863e-08 -0 1.38636957731598e-05 -1.55875599781137e-25 1.38622303781091e-05)
(1.27476858616656e-05 3.77030602480004e-08 1.75339042384026e-21 1.27502263032454e-05 5.72166364249384e-23 1.27489112217424e-05)
(1.1728301711442e-05 2.46802503229529e-08 3.24810975715559e-21 1.17305577803333e-05 -3.68576767157266e-21 1.17293784276805e-05)
(1.07960028588097e-05 1.39246011261021e-08 2.19853739462291e-23 1.07980015092322e-05 -7.69273633048972e-21 1.07969457330299e-05)
(9.94429877698608e-06 5.12586896966723e-09 -2.7389842358667e-21 9.94606491764662e-06 -3.82805542195294e-21 9.94512132568369e-06)
(9.16687814952371e-06 -1.99218783265907e-09 -1.26589945603555e-21 9.16843442496027e-06 -4.95701633516276e-23 9.16759250817922e-06)
(8.45797462153484e-06 -7.66976460194692e-09 1.58692583364917e-26 8.4593409777701e-06 -3.63070492426461e-25 8.45859174349985e-06)
(7.81239473645733e-06 -1.21202616768854e-08 2.94410507379638e-26 7.81358926706915e-06 -3.33333749611889e-26 7.81292427057471e-06)
(7.30456273571446e-06 -1.56953497826977e-08 -2.75355317934725e-26 7.30561256849104e-06 3.13396440932554e-25 7.30501834890029e-06)
(7.40827432987287e-06 -1.99789055640107e-08 -1.3991295015257e-26 7.40926673763509e-06 -1.4437871375428e-25 7.40869402441444e-06)
(7.48814132691732e-06 -2.39016348620105e-08 1.41398497034792e-26 7.48906572148293e-06 7.07497750533913e-28 7.48852035977815e-06)
(7.52794025152383e-06 -2.73414315484358e-08 -1.42660087176309e-26 7.52878490887778e-06 -7.7588066233107e-28 7.528272157499e-06)
(7.51801448611622e-06 -3.01487372932948e-08 2.8562247316485e-26 7.51876499655363e-06 -1.44747275424121e-25 7.51829369700715e-06)
(7.45524899391089e-06 -3.22457520712935e-08 -1.45773235397085e-28 7.45589341114014e-06 2.90263773649055e-25 7.45546787892517e-06)
(7.32456222027403e-06 -3.34284166574308e-08 -1.37551046513385e-26 7.32508376712933e-06 -1.43440313050298e-25 7.32471651780124e-06)
(7.12905776068681e-06 -3.37119703850481e-08 -1.29289226932734e-28 7.12944756775429e-06 1.39299648296507e-25 7.1291383403947e-06)
(6.84091018638406e-06 -3.27814389142389e-08 1.29777071742779e-28 6.84115108915798e-06 -1.33694421366066e-25 6.84091811086216e-06)
(6.48719253581013e-06 -3.09606134500129e-08 -1.25478824618096e-26 6.48728712384724e-06 1.26436985284697e-25 6.48711674193961e-06)
(6.01798205149764e-06 -2.77259858606814e-08 1.17248499151245e-26 6.01790569418751e-06 -2.35718303257153e-25 6.01783354296681e-06)
(5.49388646498835e-06 -2.38889327999811e-08 1.0352695441686e-26 5.49366211068339e-06 2.17312342035318e-25 5.49364693212094e-06)
(4.79478358867488e-06 -1.84280260812554e-08 -1.83630768293182e-26 4.79439143039277e-06 -9.60874508049436e-26 4.79449444807314e-06)
(4.09907011546313e-06 -1.33753526418519e-08 1.58476528671844e-26 4.09858491038542e-06 1.18950525923821e-27 4.09870387321594e-06)
(3.21057289226113e-06 -7.15815042608352e-09 1.88466085672519e-29 3.20999933414231e-06 6.40592073948273e-26 3.21022980078048e-06)
(3.08899020362638e-06 -3.91211944510916e-09 -1.19406191878025e-26 3.08829880486797e-06 -1.66145436367476e-25 3.0885090301315e-06)
(3.42372536666818e-06 2.30944277552619e-09 -5.48778540678386e-27 3.4227098811641e-06 1.61806413036449e-24 3.42318923230717e-06)
(4.31015767914956e-06 7.55979865569071e-09 2.10850268731364e-24 4.31246776311272e-06 3.51930779984534e-25 4.31119798331542e-06)
(4.56733210231306e-06 6.40100501949252e-09 -3.66153884545294e-24 4.57170683100495e-06 2.25958900189233e-23 4.56961608632153e-06)
(4.90617453364986e-06 4.35101035507074e-09 -1.3093291997295e-23 4.91094445608392e-06 6.50991955802091e-23 4.90872689770828e-06)
(4.89001602418251e-06 2.3374063556232e-10 4.76597616750731e-24 4.89091140497163e-06 -1.57079093478074e-23 4.89074959465678e-06)
(4.75895679461193e-06 -3.63950061652655e-09 2.01918244926971e-23 4.75311133044732e-06 -5.30103689927088e-23 4.75637515464465e-06)
(4.73415775517588e-06 -7.28178240695133e-09 -3.46846566112941e-23 4.71842109635895e-06 8.42658119855777e-23 4.72666862145876e-06)
(6.13263414958373e-06 -1.32602136488541e-08 -1.8550442843634e-23 6.0962474831552e-06 4.29534099110095e-23 6.11495103047269e-06)
(8.27908913562862e-06 -2.21984631946267e-08 -1.11618817210418e-23 8.20325682576414e-06 -2.94833221957254e-23 8.24179378775184e-06)
(1.13829268768559e-05 -3.52760061436143e-08 1.5049757335573e-22 1.12360169011226e-05 -2.53774287210083e-22 1.13101470968069e-05)
(1.55449183394442e-05 -5.30313473333045e-08 1.82026703656563e-23 1.52827804646056e-05 1.85714596079167e-24 1.54144408048803e-05)
(2.09772093501572e-05 -7.69167996025476e-08 1.38345462778389e-22 2.0538824013346e-05 -1.90628652439202e-22 2.07582720284053e-05)
(2.77989662890398e-05 -1.08644836460403e-07 2.42917775902078e-23 2.71070389791097e-05 2.60897495673878e-24 2.74526092248151e-05)
(3.61108314854206e-05 -1.51210018966223e-07 2.69112599370111e-23 3.50715249873728e-05 1.70115309813091e-24 3.55896547557317e-05)
(4.51289691774687e-05 -2.03308810073668e-07 4.98559043071137e-23 4.36725946062749e-05 -6.66737202983762e-23 4.4397951344382e-05)
(5.36734484740904e-05 -2.55275959082659e-07 -3.67811130709858e-22 5.17929322033022e-05 4.27574576359311e-22 5.2729174037884e-05)
(6.20840353077751e-05 -3.02360163615419e-07 -2.12272391267458e-25 5.97716527084764e-05 2.22997903699311e-25 6.09225624071519e-05)
(7.14816938140607e-05 -3.48859882950661e-07 1.89905612697936e-25 6.86760031532033e-05 -2.40849154028347e-25 7.0071897170518e-05)
(8.21309799395227e-05 -3.93069863392207e-07 -4.16135116593146e-22 7.87551990395334e-05 5.19631685569109e-22 8.04342036856139e-05)
(9.58838468205094e-05 -4.43950532967713e-07 -4.5009046580635e-22 9.17497523544619e-05 5.51675435090557e-22 9.38044712907708e-05)
(0.000114237409871291 -5.04894195415279e-07 5.14641334865779e-22 0.000109051983327229 -6.02379766075084e-22 0.000111627625762105)
(0.000146202316228722 -6.33182599796376e-07 -5.11187021846904e-22 0.000139038472125235 5.46080098634942e-22 0.000142590387082845)
(0.000199982754355544 -9.58413593379874e-07 5.1714060427869e-22 0.000189093288842883 -6.72062605991022e-22 0.000194482819712307)
(0.00028103205267693 -1.72255237264105e-06 7.18304882912121e-23 0.000263762688076031 1.45605853638903e-24 0.000272297039384881)
(0.000403634146729609 -3.55009397113318e-06 -9.57877914199062e-22 0.0003753493577802 1.38854342746229e-21 0.000389310459100121)
(0.000598841533518993 -8.19621552908802e-06 -9.65405114453386e-23 0.000550515231052289 5.29146327231386e-25 0.0005743407875852)
(0.000902385765247538 -2.02005977377897e-05 1.59429319010145e-21 0.000819147960457619 -2.29107278807003e-21 0.000860154184598343)
(0.00128724260085506 -4.71820207507429e-05 -8.68362404366178e-22 0.00115968764178111 1.41700085582257e-21 0.00122252125216724)
(0.00134641759528034 -7.1258494354758e-05 -2.47408580672238e-22 0.00123282358926436 4.0322908786819e-24 0.00128894318061505)
(0.000827710785503976 -4.61553808518722e-05 1.12002966995057e-22 0.000788451289781943 1.65914502340621e-23 0.000807920551456501)
(0.000359818835196988 -1.6110529642504e-05 1.28861338155726e-24 0.000353714100561988 1.32051662889746e-22 0.000356715471260263)
(0.000117329777158709 -3.39162638824087e-06 -2.13008881542687e-24 0.000117031316215986 1.96173015712722e-26 0.000117179891623251)
(7.25178258878253e-05 -1.57503360974362e-06 3.38199059307576e-28 7.2516200267408e-05 -1.47148156400979e-30 7.25122468030907e-05)
(0.000472644965064709 -6.97398276961384e-05 -0 0.000473231018251926 -0 0.000473049634192023)
(0.000435409227360802 -6.35517376894812e-05 -2.52970671161471e-27 0.000437545940250746 -2.38215435550734e-25 0.000436381806068249)
(0.000264648889221995 -3.32174500804963e-05 8.92275285004184e-23 0.000271508863344838 1.30081911213677e-24 0.000268206275023589)
(0.00010554513788946 -7.34188323145117e-06 -3.09251986728276e-24 0.000108988674830258 2.1798743153349e-23 0.000107313689802052)
(2.56441285060461e-05 -3.17860948630482e-08 -9.32478607637689e-23 2.5292404240311e-05 -2.42031910705157e-22 2.54797690783599e-05)
(4.30096622920518e-06 7.5379066564664e-08 -2.02659182982335e-23 4.08277870257771e-06 -5.23824427553885e-23 4.19352310344559e-06)
(2.60534258029023e-06 3.02543765852166e-08 -3.519041465363e-23 2.48359179098582e-06 -5.60645338499577e-23 2.54511033887692e-06)
(1.76789775878167e-06 1.23188808758918e-08 -2.64091367364747e-24 1.69616663662843e-06 -1.53213909655519e-26 1.73235362228084e-06)
(9.91133585081545e-07 4.48421776282775e-09 -8.09472698957974e-24 9.5594396577585e-07 -1.48420974967927e-23 9.73672350182805e-07)
(7.15712644447998e-07 2.28444398784587e-09 -3.26350966536275e-24 6.93151780864903e-07 -4.42798841275735e-24 7.04507982944319e-07)
(5.92452540884189e-07 1.5291802092825e-09 -1.02288678575637e-24 5.75458800748373e-07 8.13913686436322e-27 5.84001537442955e-07)
(5.28065291284418e-07 1.2763752992568e-09 3.30186468519537e-24 5.14112511894382e-07 5.28034564946417e-24 5.21115055221102e-07)
(5.12964851045911e-07 1.29242425448764e-09 -3.55821029242169e-25 5.00011185305961e-07 -4.17916122453994e-25 5.06500276297383e-07)
(5.47316433889863e-07 1.4814150816935e-09 -5.95620619201566e-24 5.33443388291745e-07 -1.1703757803436e-23 5.40381524361829e-07)
(6.31779097235042e-07 1.88711320545118e-09 3.09615580480256e-23 6.1488944926136e-07 3.83542127083274e-23 6.23322252386749e-07)
(7.8172495355733e-07 2.65375495533519e-09 -2.83472380190626e-23 7.58498638821229e-07 -2.87238149120744e-23 7.7008445340566e-07)
(1.03276797110166e-06 4.12818748550824e-09 2.71256961498981e-23 9.97070687956955e-07 4.09839772211958e-23 1.01486683725696e-06)
(1.43101848030756e-06 6.89260044060964e-09 -7.62713147397382e-24 1.37196774358553e-06 -1.84524744177833e-23 1.40141699578351e-06)
(2.03285686842677e-06 1.19049676199325e-08 -4.94054937906423e-23 1.93254578170259e-06 -6.43658027959095e-23 1.98261158988661e-06)
(2.87038395390107e-06 2.06604061285491e-08 4.45990516125003e-26 2.70420789633012e-06 3.70145743632207e-26 2.78721564760104e-06)
(3.97690431630342e-06 3.60054315759987e-08 1.19184521955141e-22 3.71287755729742e-06 1.92540298349183e-22 3.84487261554248e-06)
(5.39649396910299e-06 6.24624796661604e-08 -1.58975073440727e-22 4.99530841696117e-06 -2.16799736262175e-22 5.1960160841084e-06)
(7.14263279047167e-06 1.06438180629956e-07 3.07813176986395e-22 6.5636270929269e-06 3.80852459538872e-22 6.85346105776383e-06)
(9.18484884122226e-06 1.75896770608299e-07 -6.52177202223291e-23 8.39607295927761e-06 6.91100396970007e-24 8.79099656876173e-06)
(1.14566679189203e-05 2.79720246016612e-07 3.48393805601099e-22 1.04445087891398e-05 6.98860404270971e-22 1.09510314183935e-05)
(1.39302549259277e-05 4.26985722740907e-07 5.51725026366019e-22 1.27007955583445e-05 8.47063754959728e-22 1.33158055701916e-05)
(1.66307470182888e-05 6.23435445578895e-07 -5.64420511518903e-20 1.5211184199937e-05 -1.04857447730189e-19 1.5920764178412e-05)
(1.93327306765124e-05 8.60462684065743e-07 -2.1574061748055e-20 1.78058504661432e-05 -5.34154800340744e-20 1.8568397061844e-05)
(2.17090968571038e-05 1.11341478080819e-06 2.51627545231367e-20 2.02101842266384e-05 -8.20737654076153e-21 2.09577055860022e-05)
(2.34679097806366e-05 1.35223239259587e-06 -2.75292810997184e-20 2.21516838572885e-05 -1.22671255821829e-19 2.28075829260127e-05)
(2.46854389613629e-05 1.57749705443863e-06 -1.73704833978369e-20 2.36639172659565e-05 2.07478777962553e-21 2.41736822584754e-05)
(2.58507916010338e-05 1.87301817066291e-06 2.00254306254294e-20 2.51197277331137e-05 -1.93660396537531e-21 2.54772370638015e-05)
(2.93827544539206e-05 2.47560011634834e-06 2.37651295517157e-20 2.89012991002706e-05 1.81524685994587e-19 2.91458003886482e-05)
(4.15877218167939e-05 4.16135317669149e-06 -2.9023816091339e-20 4.10496172743595e-05 2.6054969489642e-19 4.13126587330717e-05)
(5.54502256807591e-05 6.21420342856924e-06 -3.89754876759956e-20 5.48928938533086e-05 -3.47562606375159e-19 5.51670919407984e-05)
(6.89446420181803e-05 8.34747223054836e-06 -1.24055534261893e-33 6.83964204750032e-05 -4.26627463714121e-19 6.86615273285124e-05)
(8.2046448866118e-05 1.04818883404114e-05 -7.31893804848576e-39 8.15254000547386e-05 -1.14168083907715e-23 8.17752476681794e-05)
(9.48979244083796e-05 1.26114448585866e-05 -5.81370523740096e-36 9.44077074861597e-05 1.12014903158135e-23 9.46387717899587e-05)
(0.000107529593284608 1.47124946382786e-05 8.96482677974888e-25 0.000107073733575065 -6.532221190861e-26 0.000107285143487742)
(0.000120058030564205 1.67878407433889e-05 -7.50758934706268e-25 0.000119638234684646 5.51252156103723e-24 0.000119828591807963)
(0.000132515088042466 1.88266822505114e-05 -2.85621158554384e-25 0.000132134770542091 -3.19714174706774e-25 0.000132302640317469)
(0.000144940373546078 2.08230531565939e-05 3.24910909368927e-25 0.000144603672983594 -3.04292426066907e-24 0.000144746855010207)
(0.000157334690510283 2.27644896165846e-05 -1.62651103734372e-24 0.00015704695661738 -8.74179719566418e-24 0.000157162917390363)
(0.000169695402972372 2.46390771558018e-05 1.38459061156229e-24 0.000169462654895624 2.21412247030397e-23 0.000169548433379928)
(0.000182006778094528 2.64328482093011e-05 -0 0.00018183555829869 5.31871162133351e-26 0.000181888039731526)
(0.000194257655972406 2.81330949993888e-05 -1.18064249560329e-19 0.000194154665054876 6.13371462240596e-21 0.000194170642464626)
(0.000206448074412157 2.97289955378449e-05 -1.48502055642147e-19 0.000206419891416498 -1.24563610907727e-18 0.000206396248204541)
(0.000218594017589667 3.12125022737658e-05 1.08186050209416e-19 0.000218646791183865 -1.35157822284338e-18 0.000218580619205226)
(0.000230667200541214 3.25695402200704e-05 1.39694253664456e-19 0.000230807023629532 -6.67907586685266e-21 0.000230695509906772)
(0.000242538839977981 3.3766284879249e-05 1.27704748031064e-19 0.000242771987949897 -5.52468381685547e-21 0.000242612443983658)
(0.00025394029626533 3.47632054082735e-05 1.78247079173269e-19 0.000254271325288216 -7.85458254997536e-19 0.000254061971127682)
(0.00026486320381883 3.55599989912168e-05 6.87316541416148e-20 0.000265294685693642 -8.0229058096777e-19 0.000265034590005205)
(0.000275246757017434 3.61510331078304e-05 5.50361415405136e-20 0.000275780133370188 1.73363403693311e-18 0.000275468964778534)
(0.000285035408840329 3.6530592594228e-05 -1.45342193458889e-19 0.000285670685092375 1.82857493889951e-18 0.000285308832302191)
(0.000294181108500883 3.66963290294794e-05 -1.8314414314415e-19 0.000294916852072903 6.38739887023491e-21 0.000294505413295529)
(0.000302642842287994 3.66489968631834e-05 -1.2719577633673e-24 0.000303476223035378 4.15065258162497e-26 0.000303016978682304)
(0.000310387251640771 3.63923675723739e-05 -1.95292949947399e-35 0.000311314120466436 5.52309294781202e-37 0.000310809487111619)
(0.000317388898179824 3.5933044021394e-05 1.69495707825747e-35 0.000318403901690382 -7.90976693312342e-24 0.00031785686908914)
(0.000323630310947302 3.52802058037905e-05 2.36560255802076e-35 0.000324727034267403 8.06750071597776e-24 0.000324141089439357)
(0.000329101840842596 3.4445301115997e-05 -1.48121698362479e-24 0.000330272971408204 3.2223381802723e-26 0.000329652013437124)
(0.000333801342130951 3.34416998803556e-05 1.97742240226417e-24 0.000335038847094986 7.96844181257701e-24 0.000334387096290381)
(0.00033773369994309 3.22843227588063e-05 1.19842437169045e-24 0.000339029009418133 -1.11086176144611e-23 0.000338350914774141)
(0.000340910248439141 3.09892624336122e-05 -2.48280784349699e-24 0.000342254438120904 3.04245018516788e-24 0.000341554586123583)
(0.000343348093164217 2.95734087503252e-05 7.9396629706937e-25 0.000344732060157976 -7.79857575844213e-24 0.000344015087988661)
(0.000345069376989184 2.80540905392078e-05 -2.5017157367608e-19 0.000346484003866523 2.72451688606619e-21 0.000345754519289542)
(0.000346100512437653 2.64487430250316e-05 -3.94971300601442e-20 0.000347536815648159 -2.46169903211856e-18 0.00034679932542234)
(0.000346471409229615 2.47746084000752e-05 4.97233471762819e-19 0.000347920669308563 -1.28945936550538e-19 0.00034717951717093)
(0.000346214707738892 2.30484737268754e-05 3.5590821423808e-20 0.000347668579400364 2.39098201831515e-18 0.000346927894505594)
(0.000345365049985939 2.1286450174037e-05 -2.46353262054168e-19 0.000346815651656224 1.06922373247378e-21 0.000346079307450369)
(0.00034395838765895 1.95037934496186e-05 2.55506289279674e-35 0.000345398370406488 6.03021045923365e-25 0.000344669953924285)
(0.000342031351997202 1.77147657782292e-05 2.67451166951047e-35 0.000343453949017749 6.11078942075477e-25 0.000342736739810119)
(0.000339620674385529 1.59325363887574e-05 1.84206285138758e-36 0.000341019732090247 -2.68584240750098e-24 0.000340316690234718)
(0.000336762680936111 1.41691188343752e-05 -2.63609748367881e-35 0.000338132673610405 2.06442875347615e-24 0.000337446435714657)
(0.000333492855733889 1.24353406217519e-05 -0 0.000334828886040861 -2.50184164790076e-24 0.000334161768043064)
(0.000329845456873311 1.07408407564382e-05 -9.54208899156425e-25 0.000331143243895372 7.5332892990892e-24 0.000330497249763981)
(0.000325853196405808 9.09409192316902e-06 9.00701600589674e-25 0.000327109053415894 -2.58736980227288e-25 0.00032648588872395)
(0.000321546992393363 7.50244273975277e-06 9.85947277252757e-25 0.000322757796762597 3.15484539677237e-25 0.000322158885694935)
(0.000316955748475425 5.97217560000672e-06 1.00497628112704e-24 0.00031811890528044 -5.07154963900874e-24 0.000317545410758538)
(0.000312106212902701 4.50857653234038e-06 -1.86043091796962e-24 0.000313219614125264 5.42765218652733e-25 0.000312672459236535)
(0.000307022785248716 3.11601496097079e-06 -3.89160969826229e-24 0.000308084764968978 -6.58809827605306e-25 0.000307564657119488)
(0.000301727542880208 1.79802726262871e-06 3.75629152948338e-24 0.000302736831990226 9.8005616656138e-24 0.000302244285549823)
(0.000296240008393311 5.57408884370491e-07 3.86738529748171e-24 0.000297195689273195 7.02170237940952e-25 0.000296731049642078)
(0.000290577290926104 -6.03703890132177e-07 -3.76616539859519e-24 0.000291478800347073 -9.8139483831275e-24 0.000291042216081192)
(0.000284753778996704 -1.68371442925221e-06 -1.89707951141526e-24 0.000285600843808868 -6.29424270127405e-25 0.000285192310318994)
(0.00027878131238796 -2.68152893131605e-06 -2.86180979537277e-19 0.000279573714650278 -9.33866177377641e-21 0.000279193284657788)
(0.000272668719708884 -3.59643712749015e-06 -5.7296787263303e-19 0.000273406366938144 -2.30126105752595e-18 0.000273054061404056)
(0.000266423231003867 -4.42806396911041e-06 -1.11552687800865e-20 0.00026710627633641 -4.4701166132613e-18 0.000266781931230824)
(0.00026004689521495 -5.17613721742644e-06 5.43595586989266e-19 0.00026067544736156 -2.16418801752156e-18 0.000260379009066412)