/*--------------------------------*- C++ -*----------------------------------*\
| =========                 |                                                 |
| \\      /  F ield         | OpenFOAM: The Open Source CFD Toolbox           |
|  \\    /   O peration     | Version:  4.1                                   |
|   \\  /    A nd           | Web:      www.OpenFOAM.org                      |
|    \\/     M anipulation  |                                                 |
\*---------------------------------------------------------------------------*/
FoamFile
{
    version     2.0;
    format      ascii;
    class       volVectorField;
    location    "30000";
    object      U;
}
// * * * * * * * * * * * * * * * * * * * * * * * * * * * * * * * * * * * * * //

dimensions      [0 1 -1 0 0 0 0];

internalField   nonuniform List<vector> 
21000
(
(0.0592148726600212 -0.000109438015143786 0)
(0.0720653522727609 -0.000996523126502253 0)
(0.0556368561401429 -0.00468968999743262 2.6015739530858e-21)
(0.00467959390296726 -0.00195380470761032 -3.82074021219794e-21)
(-0.0257535893679745 0.00756261001830547 -2.21337718911063e-17)
(-0.024396893358526 0.011604868247554 0)
(-0.0166790357401943 0.010134248742674 -4.38216945371274e-21)
(-0.0128561972397432 0.0089518974061649 1.30317428296926e-21)
(-0.0101259922638869 0.00769454903061775 -4.3517416577839e-17)
(-0.00818420404691977 0.00657535279518837 4.47399167908043e-17)
(-0.00687768911466334 0.0056785023784203 -5.68064979652853e-21)
(-0.00580920729974922 0.00482857384772756 9.7116090432153e-17)
(-0.0050857706749837 0.00419243229989671 1.24432294965801e-20)
(-0.00470108560167653 0.00384197044574859 -5.34132016349052e-17)
(-0.00459190167670425 0.00372767420110461 5.57056114040344e-17)
(-0.00479680162592898 0.00387042304425667 0)
(-0.00536913953525273 0.00429700071624868 0)
(-0.00632845647377389 0.0050139608583553 6.17960448450693e-17)
(-0.00762714928189199 0.00597139813944183 -6.35616351432421e-17)
(-0.00904968852431478 0.0069724814283741 -6.40080068855591e-20)
(-0.0105192107669245 0.00789196505230832 -6.60675530258449e-20)
(-0.0119799797083766 0.00864672367131867 -6.97658303855828e-17)
(-0.0133176445556491 0.00912257147574369 -1.41414677530036e-19)
(-0.0143859366329124 0.00920401959500632 7.3349307665969e-20)
(-0.01507389586231 0.00883208834425084 0)
(-0.0155343744141934 0.00813746354280774 4.05945204265321e-17)
(-0.0158249634790377 0.00724650525093428 4.22366295456747e-17)
(-0.0157424858844902 0.00613463415432018 -1.69606692340862e-19)
(-0.0152249524278611 0.00485754381302015 0)
(-0.0144045071980869 0.00353769812588829 0)
(-0.0133600764774439 0.00224001359593835 -1.8113740216667e-19)
(-0.0118987682252876 0.00101692608347736 -1.15929783619971e-17)
(-0.0160540213429759 0.000313767385785683 6.64017564761744e-15)
(-0.0248741639237182 0.000132538299349941 6.62937862421471e-15)
(-0.0313284379691739 0.00015070566771704 -8.68270072334769e-20)
(-0.0368175434485757 0.000156384112566675 8.58838962948443e-20)
(-0.0411904356245397 0.000166022810678701 -8.53317482261504e-20)
(-0.0448810813876544 0.000171730145794857 -1.60935858710896e-22)
(-0.0479686979997831 0.000178126160297974 -1.89211575444195e-22)
(-0.0506240251557591 0.000183060884905028 1.6830798171513e-19)
(-0.0529074947582438 0.000187493526154421 2.37574180844718e-22)
(-0.0548852641030592 0.000190788647879559 -8.37571666353977e-20)
(-0.0565878954945898 0.000193150360184207 0)
(-0.0580417248717969 0.000194391884111206 8.40397014658155e-20)
(-0.0592608805896954 0.000194565341938543 3.13196330613379e-22)
(-0.0602565743009148 0.000193634949795843 -1.68257883912192e-19)
(-0.0610361338542456 0.000191644716620385 -6.27318039757842e-15)
(-0.0616060335797756 0.000188611425544498 -6.35456364927121e-15)
(-0.0619713072798125 0.00018456239337367 8.46866372459613e-20)
(-0.0621348874641776 0.000179517537992735 8.54038548370791e-20)
(-0.0620996870785728 0.000173532326188655 -8.53841490073113e-20)
(-0.0618720557953646 0.000166710712869161 4.30879068444663e-20)
(-0.0614580483319635 0.000159169573926467 6.43729876000027e-15)
(-0.0608652034568489 0.000151007745845494 6.52059348983949e-15)
(-0.0601019568150806 0.000142318734365313 4.36042748106423e-20)
(-0.0591775738834219 0.000133196778207501 0)
(-0.0581020630773947 0.000123735488837937 0)
(-0.0568860596795965 0.000114026151263955 -6.4887011885143e-31)
(-0.0555406950051851 0.00010415629416251 6.53593103746808e-31)
(-0.0540774589481893 9.420849452683e-05 0)
(-0.0525080603710884 8.42593303225557e-05 0)
(-0.0508442911426204 7.43786826127397e-05 -2.30331740339136e-20)
(-0.0490978982208007 6.46291801742184e-05 2.31142570079737e-20)
(-0.0472804656436639 5.50659152598149e-05 -2.34062311147795e-20)
(-0.0454033095877706 4.57363240716792e-05 2.34970219098244e-20)
(-0.043477387587076 3.66802888729655e-05 -7.09470506352477e-15)
(-0.0415132224040618 2.79303185476271e-05 -3.60463614883232e-16)
(-0.0395208406901489 1.95119245585344e-05 6.87119009953294e-15)
(-0.0375097263219333 1.14440120240416e-05 -6.07332493473358e-21)
(-0.0354887874786824 3.73942027339666e-06 0)
(-0.033466336718861 -3.59457757350789e-06 0)
(-0.0314500822279775 -1.05556918155579e-05 -6.24725988648022e-21)
(-0.0294471304212187 -1.71460368844724e-05 6.27518769710903e-21)
(-0.0274639971164947 -2.33715926657387e-05 0)
(-0.025506626026171 -2.92416816678988e-05 0)
(-0.0235804151784637 -3.47684055922366e-05 0)
(-0.0216902474093299 -3.9966285361533e-05 0)
(-0.0198405276176514 -4.48516489632653e-05 0)
(-0.0180352185233508 -4.94426227606265e-05 0)
(-0.0162778896673015 -5.37581165692106e-05 0)
(-0.0145717534821836 -5.78187263244744e-05 0)
(-0.0129197285848464 -6.1644084758277e-05 0)
(-0.0113244603609422 -6.52512173199053e-05 0)
(-0.00978842010221935 -6.86548888104214e-05 0)
(-0.00831389380211735 -7.19169766128778e-05 0)
(-0.00690311467001367 -7.50664963983881e-05 -8.25727394024232e-15)
(-0.00555823241201269 -7.80958419320391e-05 -1.65527555620421e-14)
(-0.00428160800034117 -8.11736537421197e-05 -8.2901714266688e-15)
(-0.00307539489763858 -8.43085613244077e-05 0)
(-0.00194246641685178 -8.73259651090211e-05 1.12551276764935e-19)
(-0.000885278138211146 -9.02585950797426e-05 -1.1285810054319e-19)
(9.21079533927535e-05 -9.30497874134662e-05 -1.13464724094173e-19)
(0.000986986832514743 -9.57689725024202e-05 1.13362883284667e-19)
(0.00179263636596035 -9.83765616063756e-05 0)
(0.00250638975630665 -0.000101110467157071 0)
(0.00311609892264621 -0.000103711238494943 1.13770343311612e-19)
(0.00362120970677147 -0.000106683427757725 -2.27558295504595e-19)
(0.00399741642446506 -0.00010930221291236 1.13824128006405e-19)
(0.00425356192622597 -0.000112862529915467 -1.14219726260413e-19)
(0.00433671251814758 -0.000115379685006947 1.14242680437278e-19)
(0.00428833523327652 -0.000120125924360377 -1.1468843164281e-19)
(0.00398598414765943 -0.000121835510082497 2.2972517229006e-19)
(0.00354753803672017 -0.000129450868688739 -2.30427941663116e-19)
(0.00267713263026183 -0.000128590935320532 1.15513660411246e-19)
(0.00173723010978782 -0.00014296756375777 0)
(-5.1471110863139e-06 -0.00013450921452685 -1.16615967232499e-19)
(-0.00147094806711382 -0.000163543180828125 -2.37291827853475e-22)
(-0.00468286129834587 -0.000160798782395454 1.15894594564878e-19)
(-0.00662476077776449 -0.000607868211848956 -2.32946072514045e-19)
(-0.00608909377282183 -0.000888393755303759 -2.94181221205835e-17)
(-0.00542579282716142 -0.00107563719406632 0)
(-0.00389719265696698 -0.000883648794005306 -5.7708913755145e-17)
(-0.00209555028209028 -0.000371742850948737 0)
(0.00016313107060424 0.000581843654900129 -5.50168080980119e-17)
(0.00271298626592018 0.0019685433223894 -5.27611537217293e-17)
(0.00582753861764737 0.00394810265307224 -1.01083474015673e-16)
(0.00953189738717111 0.00654523915145381 1.93455738612779e-16)
(0.0135835325759229 0.00958008866845819 0)
(0.0179382858227754 0.0129538607227872 8.88324733740619e-17)
(0.0225168133566969 0.0165425259824898 0)
(0.027295741248473 0.0202391981028371 0)
(0.0318890185062562 0.0237158835806043 -7.91682943017347e-17)
(0.0358119278109161 0.0267241197392024 -7.48093083173008e-20)
(0.0392879613848391 0.0295351324479333 0)
(0.0428023089808005 0.0324959123758183 0)
(0.0463831143010485 0.0356738675857812 0)
(0.0505647787128729 0.0394424251966289 0)
(0.0555652121968838 0.0440261944086143 1.31494983426567e-20)
(0.0634168511116849 0.0507395579397576 -5.78087826106121e-17)
(0.075295179955383 0.0596835374194857 5.42740964804426e-17)
(0.0910735643949458 0.0699817003320998 0)
(0.11202716733821 0.0813557564471947 -3.8560066468928e-20)
(0.141072219315528 0.0936179154213648 1.30252593370479e-21)
(0.180405948092539 0.104090396091294 4.04923690007426e-17)
(0.22584335479486 0.104345527160507 -3.6835620652933e-17)
(0.242378717521773 0.0772764072693841 -1.99460359605326e-21)
(0.195278004520346 0.0359939452777119 8.17997197579206e-18)
(0.128458996759792 0.0102970324439698 -4.35474895418306e-18)
(0.0684524097147875 0.00082538261798996 1.12000303588945e-21)
(0.0493100079947068 -0.000246634634399864 0)
(0.209646431502641 -0.000698012750329635 0)
(0.22937052925721 -0.00273060453868764 0)
(0.191073480752862 -0.0123981174109338 0)
(0.0637307290646199 -0.00860633216376424 -1.46416591953755e-17)
(-0.0441955552677303 0.0170650183496315 0)
(-0.0615028980488068 0.0311909212203542 0)
(-0.0451494318214287 0.0283025630287991 -6.31559527748036e-17)
(-0.0349982580193473 0.0252491530805455 0)
(-0.0279571888208528 0.0219486889181293 2.02252984933475e-21)
(-0.0229345676896696 0.0189527152590336 -1.34947293510925e-16)
(-0.0195232586242275 0.0165004567030485 8.58440327826477e-21)
(-0.0168282567084598 0.014190246574256 -7.34868961525428e-17)
(-0.015069872320662 0.0124795550158422 7.71688915377007e-17)
(-0.0142262181386543 0.0115788205383052 -8.07612019195458e-17)
(-0.0141708439819228 0.0113724314584343 -8.41795294983572e-17)
(-0.014996575015859 0.0119186990836268 -8.69826392419341e-17)
(-0.0168343338523981 0.0132827123661334 8.95938026639591e-17)
(-0.0196861316662057 0.0154551695081966 8.96272263560037e-20)
(-0.0233581604248675 0.0182519154030124 3.70469397820417e-23)
(-0.0273149607846643 0.0211289388734172 -9.3164481567556e-20)
(-0.0313485935991752 0.0237274325384677 -9.51345379987587e-20)
(-0.0353084236803277 0.0258043491068753 9.97359547833151e-17)
(-0.0389320300227679 0.027051812385366 -9.95415743666031e-20)
(-0.0419318543323454 0.0271888771257024 0)
(-0.044173255394434 0.0261197280573747 1.07832994924229e-16)
(-0.0459690311691601 0.02416702233304 5.54791680859418e-17)
(-0.0473885777618921 0.0216254077281604 2.22764077212964e-19)
(-0.0480300432630012 0.018457702932217 6.62286601046858e-15)
(-0.0478212837275839 0.0148279762503646 -1.10193023079012e-16)
(-0.0470468176166145 0.0110286199821939 -7.58801018875291e-15)
(-0.046148063346753 0.00728678854095573 2.40023132564415e-19)
(-0.0470269163438366 0.00410042350234713 2.37133261684305e-19)
(-0.0598232185233383 0.00214583507268761 -8.27266766238939e-15)
(-0.0808402469280988 0.0014625848197829 -7.69201946551834e-15)
(-0.0962518255658214 0.00118795049613949 0)
(-0.108779220485326 0.000949221834070279 0)
(-0.118604337444447 0.000779816240113455 0)
(-0.126705966180311 0.000646845144284546 0)
(-0.133371827549803 0.000548149739098429 6.62573545210675e-31)
(-0.138971646621155 0.000468760346505273 -8.99650577728993e-20)
(-0.143662737739696 0.000404148432793902 8.87233287491653e-20)
(-0.147589226172486 0.000348289376331081 -8.81700313578602e-20)
(-0.150826836047774 0.000298722856379878 8.72368405735062e-20)
(-0.153436764256491 0.00025308260308636 0)
(-0.15545678326757 0.000210270872860396 0)
(-0.156917352953497 0.000169438744751954 0)
(-0.157841508475639 0.000130236748916125 6.47142723660837e-15)
(-0.158250875922711 9.24195200868662e-05 6.40378082728352e-15)
(-0.15816634336132 5.55557588510377e-05 0)
(-0.157602005379955 1.90510864264138e-05 0)
(-0.156565336923901 -1.66773679200667e-05 -5.55557056455003e-15)
(-0.155079370361131 -5.10538400858982e-05 -5.61700260704017e-15)
(-0.153165447712607 -8.40325550391108e-05 -6.51919249334243e-15)
(-0.150846284926408 -0.000115438504057722 -6.50181146648254e-15)
(-0.148145959932109 -0.000145126181727583 -4.38034427102857e-20)
(-0.145089712727582 -0.000172965209720532 0)
(-0.141703740470879 -0.000198843899949713 0)
(-0.138014952099285 -0.000222673087576665 6.54445667721348e-31)
(-0.134050709730197 -0.000244387827885803 -6.60935961005595e-31)
(-0.12983856987007 -0.000263947948152578 0)
(-0.12540603195654 -0.000281337826795366 4.65477330695801e-20)
(-0.12078030277213 -0.000296565046017254 -7.04687195144216e-20)
(-0.115988082233506 -0.000309658753720607 2.37614821096187e-20)
(-0.111055372645239 -0.000320667424281498 0)
(-0.106007315010313 -0.000329656417188979 0)
(-0.100868052684869 -0.000336705282101753 7.43955778149219e-15)
(-0.0956606220897635 -0.000341905212947516 3.57408134470915e-16)
(-0.0904068697738935 -0.000345356312042114 -7.28815579755803e-15)
(-0.085127394758428 -0.00034716519448849 7.58378693895511e-31)
(-0.0798415140791183 -0.000347442513720995 0)
(-0.0745672497137405 -0.000346300949976437 0)
(-0.0693213341100565 -0.000343853183116033 -7.97755322033387e-31)
(-0.064119233963668 -0.000340210163658303 0)
(-0.0589751876392247 -0.000335479745347394 0)
(-0.0539022548672421 -0.000329765416099335 0)
(-0.0489123792106878 -0.000323165076482355 2.94634123522245e-20)
(-0.0440164574987026 -0.000315770496344198 -2.99039859500577e-20)
(-0.0392244202613473 -0.000307666117098264 0)
(-0.0345453111195133 -0.000298929438445398 -6.21878126038623e-20)
(-0.0299873889058913 -0.000289628544546918 6.31378617156599e-20)
(-0.0255582078071209 -0.000279824919752296 6.4458759377203e-20)
(-0.0212647479732843 -0.000269565552080647 -6.54455757442219e-20)
(-0.0171134682030415 -0.000258896332241603 -6.67901904837187e-20)
(-0.0131105154128494 -0.00024785230284432 6.78054832952379e-20)
(-0.00926171095133568 -0.000236768973076901 0)
(-0.00557285718326508 -0.000225661297652215 1.04722989411194e-14)
(-0.0020496455093115 -0.000214205017484673 2.13768516985729e-14)
(0.00130168725155903 -0.000202268181191584 1.08130891712662e-14)
(0.0044752272637004 -0.000189854500288345 -3.10055851742609e-22)
(0.00746341708316141 -0.000176912221589081 1.4319094004972e-19)
(0.0102592894646057 -0.000163447779379051 1.43181238257184e-19)
(0.012852357761447 -0.000149197507111341 -1.42685635063307e-19)
(0.0152343457583627 -0.000134207150794556 0)
(0.0173888105326886 -0.000118018500243009 0)
(0.0193064801742939 -0.000100976738313745 0)
(0.0209587681915121 -8.19399545982941e-05 0)
(0.0223383974280007 -6.19560091051449e-05 0)
(0.0233906436984725 -3.83303714104458e-05 0)
(0.0241227250088717 -1.42648416255392e-05 0)
(0.0244200144948082 1.64370120538801e-05 0)
(0.0243557719191008 4.48228975422607e-05 0)
(0.0236739012041376 8.96475302421196e-05 0)
(0.0225694561780411 0.000125306114743167 0)
(0.0204279378705933 0.000197582376887815 0)
(0.0179050883695421 0.000235085130665001 0)
(0.013477402633046 0.000355415773453867 0)
(0.00919569968593605 0.000374188002376281 3.22755700093279e-19)
(0.000858523447564244 0.000591548904720658 -2.96602559597012e-18)
(-0.00374226368643861 -0.000256031396357292 0)
(-0.00250158546698058 -0.000483181905482715 0)
(-0.000361880206325532 -0.000317415811990118 -8.35270265866896e-17)
(0.00356486613789143 0.000796243855260716 8.06554484559282e-17)
(0.00816732252535941 0.00274255839453419 7.70708242650939e-17)
(0.01372269708432 0.00576991735523341 -7.33794889982043e-17)
(0.0199543945665097 0.00988133638058406 0)
(0.0274049704842735 0.0154234286479537 1.3153042628083e-16)
(0.0360923650435211 0.0224346790033004 3.4448292183071e-21)
(0.0455996244754162 0.0305166502995612 -1.15205669066717e-19)
(0.0558414850191484 0.0394276396337479 2.18951176327302e-19)
(0.0666825844610786 0.048883452551879 -2.08842624687806e-19)
(0.0780814921276944 0.0586273953694045 1.00004079371194e-19)
(0.0893210357504015 0.0679462556903513 9.86184296901172e-17)
(0.0994524879556654 0.0762982496113753 -9.53717420281135e-17)
(0.108660172408153 0.0842161550373836 -4.49342197837993e-20)
(0.11777029598212 0.0924681482461609 4.34760818086964e-20)
(0.126989621846307 0.101306549369658 -8.54801068640952e-17)
(0.137352917094034 0.111576790834912 -8.17569658994742e-17)
(0.149442702084039 0.12388194087019 7.76146653937551e-17)
(0.167159627997425 0.141075398639953 0)
(0.193272301954965 0.163413390694533 0)
(0.228492334130692 0.188924636356408 0)
(0.275115687900857 0.216403250780369 -5.66491533232538e-17)
(0.338247199290008 0.244533193785417 -7.91269337787805e-22)
(0.42203222870445 0.266664473445613 0)
(0.521376630795882 0.265647208973695 1.94686711133347e-17)
(0.585256171519197 0.207937439985008 0)
(0.540084467686997 0.112288418800428 -8.39575137646224e-18)
(0.420504999700658 0.0403140610600309 3.37917010354507e-21)
(0.278956470730108 0.00678843371569763 -1.26766867711171e-21)
(0.211104751216866 -7.44713390812655e-05 0)
(0.380811941148349 -0.000514543073682414 0)
(0.389435357188578 -0.0038831951139644 1.20590294521266e-21)
(0.340379239370477 -0.0187325423046854 1.22860779597081e-21)
(0.166365190707025 -0.0201752210723909 8.02423831881702e-23)
(-0.0273913559490891 0.0160689953629104 -3.47581781613937e-21)
(-0.0876122196040183 0.0449880438335407 3.22226665737617e-17)
(-0.0698891686466285 0.0431268538553324 6.28016773365971e-17)
(-0.0546964759299507 0.0388728886688067 1.94893687540747e-21)
(-0.0442448008544362 0.0342847467567357 5.58735177221336e-21)
(-0.0367378069009558 0.0300173500770369 6.82362283383533e-17)
(-0.0315828967101397 0.0264248815979012 0)
(-0.0276001757224803 0.0230703123518636 7.45540302715668e-17)
(-0.0250815158639613 0.0206406704260114 -2.0157336759041e-20)
(-0.0239961691078528 0.0194703050018727 1.80758226921836e-22)
(-0.0241914624129522 0.0194211334804691 -8.50320187766329e-17)
(-0.0257941463785023 0.0205827936642511 8.74891433892353e-17)
(-0.0289841957526102 0.0230299759199524 -8.93928882553065e-17)
(-0.0336991820737352 0.0266882371796267 9.06260190360865e-17)
(-0.0395666093361324 0.0311924398790598 1.78973398402875e-19)
(-0.0458041294298409 0.0357190175053696 -9.02502669709271e-20)
(-0.0520891456764585 0.0397082971022714 -9.32898066297534e-17)
(-0.0581915704394745 0.0427835948826631 9.20721817247912e-20)
(-0.0637705122282451 0.0445159197806031 -9.55539809806208e-17)
(-0.0685206692127027 0.0445705337516925 -9.45868002539409e-20)
(-0.0724007865935356 0.0428952662738092 -9.77541969375882e-17)
(-0.0758126335869656 0.0399019540739115 -4.96824515586224e-17)
(-0.078817063141912 0.0359631382438615 8.74648711945938e-15)
(-0.0809933965540712 0.0310652514611216 3.37170791656989e-15)
(-0.0823430578712086 0.0254365970897358 3.27638464830012e-16)
(-0.0833422848682 0.0194704222564531 6.29846693268738e-15)
(-0.0851540900397152 0.0136052047966265 -2.53075482819258e-17)
(-0.0914214036928121 0.00855006484447305 0)
(-0.110807831012036 0.00497771187013758 1.35195864397288e-18)
(-0.137502634631191 0.00369184508861568 0)
(-0.156532975770268 0.00291766244239402 7.1708438329e-15)
(-0.171262349299262 0.00229713126123434 6.98143304509902e-15)
(-0.182443225483351 0.00185575994984078 6.83742027233756e-20)
(-0.191317461606022 0.00151946140217201 -1.32464028955978e-19)
(-0.19833342101902 0.00126442692616483 -1.44636562567189e-22)
(-0.203940197470739 0.00105781084540266 1.25836681366358e-19)
(-0.208352882571568 0.000885481488902492 1.74277669679651e-22)
(-0.211751697304808 0.000734426638089452 -6.03229962890501e-20)
(-0.214242450095727 0.00059830295156882 5.94909477396105e-20)
(-0.215909734776081 0.000472041280239838 -5.83918515960494e-20)
(-0.216812285817783 0.000353013137347129 0)
(-0.216998672448558 0.00023934005700343 0)
(-0.21650780638137 0.000130141220611842 0)
(-0.215373772385642 2.5030048680289e-05 0)
(-0.213632590175951 -7.65783840617903e-05 5.54118353556551e-20)
(-0.211318577600618 -0.0001753606241079 -5.46393165149155e-20)
(-0.208463853917536 -0.000270547849144104 3.52640175076486e-15)
(-0.205100865477593 -0.000361364807674438 3.47344181537855e-15)
(-0.20126201983391 -0.000447674330668805 0)
(-0.196980040408311 -0.000529175433266904 0)
(-0.19228784621212 -0.000605607932479072 0)
(-0.187218459178219 -0.000676749899610046 0)
(-0.181804868082816 -0.000742424223358526 0)
(-0.176079866060108 -0.000802504404454259 2.68104814632904e-20)
(-0.170075878508549 -0.000856916382366083 -2.67666439349988e-20)
(-0.163824792096236 -0.000905638216645425 0)
(-0.157357790145703 -0.000948698299687268 -2.71535118591365e-20)
(-0.150705201284792 -0.000986171659733327 1.35415295836047e-20)
(-0.143896364722552 -0.00101817578982986 1.37074714106141e-20)
(-0.136959513805254 -0.00104486551854076 0)
(-0.129921680385802 -0.00106642761630198 1.40200073887011e-20)
(-0.122808620039196 -0.00108307510994215 -2.11914268780259e-20)
(-0.115644757603507 -0.00109504192476108 7.13491897331889e-21)
(-0.108453152790345 -0.00110257732981153 0)
(-0.101255484689415 -0.00110594104071939 1.8365909823588e-21)
(-0.0940720538627208 -0.00110539831536085 -1.85486936143886e-21)
(-0.0869218003107119 -0.00110121589017536 -1.88894303269525e-21)
(-0.0798223355585835 -0.00109365795878311 1.91078567349753e-21)
(-0.0727899886265782 -0.00108298276234762 0)
(-0.0658398619576073 -0.00106943984333511 7.92026039256996e-21)
(-0.0589858968182383 -0.001053267439849 -2.41389574385263e-20)
(-0.0522409490399412 -0.0010346900781281 -5.19283079840586e-23)
(-0.0456168694884311 -0.00101391725814687 -5.12382050383841e-23)
(-0.0391245947877847 -0.000991141205224956 1.6948613465656e-20)
(-0.0327742353554711 -0.0009665368430164 0)
(-0.0265751878517947 -0.000940257621196483 0)
(-0.0205362211605948 -0.000912438651964937 -3.60187382561183e-20)
(-0.0146656221894785 -0.000883191610046327 -9.65106684988231e-23)
(-0.00897125277959692 -0.000852694736026856 3.74077595141576e-20)
(-0.003460803299357 -0.000821068039570461 0)
(0.00185826148286908 -0.000788093391933314 0)
(0.00697834585132297 -0.000753691195196634 0)
(0.0118918240950605 -0.000718053315489381 0)
(0.0165902386699954 -0.000680977478084812 0)
(0.0210651852716863 -0.000642416577015903 7.90485529889975e-20)
(0.0253063974051785 -0.000602310773033698 1.67250191115386e-22)
(0.029303755883792 -0.000560563218642661 -7.98931246508653e-20)
(0.0330432869819554 -0.000516704567229794 -8.06633268207588e-20)
(0.0365123676614557 -0.000470642378275087 1.6252940409197e-19)
(0.0396899996818278 -0.000421420623443961 -1.64068494695241e-19)
(0.042560711142031 -0.000369162386311281 1.65801301686027e-19)
(0.0450896135788516 -0.000311823888153116 -8.38049741520682e-20)
(0.0472597860181267 -0.000250370075386028 -8.50773749388688e-20)
(0.049007592027628 -0.000180267374042325 -1.59503068795981e-22)
(0.0503238300456265 -0.000105257317920209 8.76692195525462e-20)
(0.0510808852478011 -1.56120884286412e-05 0)
(0.0513160418285539 7.67875128144432e-05 0)
(0.050757354288455 0.000202086971063318 0)
(0.0495528792198358 0.000325991913484842 0)
(0.0470401121442036 0.000519467338262008 1.95649527445466e-19)
(0.0437851769903269 0.000681332070997579 -9.95192593774303e-15)
(0.0381391300102746 0.000990570899381866 -1.01780059743544e-14)
(0.0319992660574341 0.00117897587923226 2.20684042408091e-19)
(0.0208836103326942 0.00175771803240989 2.10980536151457e-18)
(0.0147641485199115 0.00143012761811926 -2.4362759009372e-19)
(0.0158475087630074 0.00224084063965393 2.35606171214887e-19)
(0.0188517819727975 0.00375510992462668 5.63336597948548e-17)
(0.0238325556161659 0.00646711990468531 -2.08493411643172e-19)
(0.0297826396658545 0.0102502185617367 -5.03726094450624e-17)
(0.0368873015897606 0.0153547925921278 9.54415994612808e-17)
(0.0449418133783215 0.0218268936939411 1.76510181728597e-19)
(0.0545277543868767 0.0300185604856048 -1.67088619070942e-19)
(0.0657272476293595 0.0399606322240721 2.36394578320853e-19)
(0.0781671854811901 0.0512335718360995 -7.53193437844925e-20)
(0.0917463902484995 0.0635521936355733 7.37451249991607e-17)
(0.1063207538439 0.0765982371741707 7.09725650824614e-17)
(0.121829107398195 0.0900616063828028 -6.84240090850068e-17)
(0.13753660806446 0.103225472748234 -6.66709416191657e-17)
(0.152365048632497 0.115560608422145 1.30732595382354e-16)
(0.166274716826857 0.127579714773404 3.14632591252207e-20)
(0.180054301182028 0.140079501683138 6.28769581591647e-17)
(0.194022346589544 0.15344179022978 1.22741030623194e-16)
(0.209344374935845 0.168595506477984 5.95103531997083e-17)
(0.226853126755487 0.186335433353157 0)
(0.250896703967005 0.209523173718545 1.29614114576835e-20)
(0.28521483935618 0.238331615736859 -6.20284824146875e-21)
(0.331168338002109 0.270348206558276 -5.5773430943389e-21)
(0.39097499245729 0.303304516256999 -4.03975029402617e-17)
(0.469280304329693 0.33409617759781 -1.59008904471536e-21)
(0.569425965475052 0.353710600931153 2.99099333513869e-17)
(0.686238848494259 0.343718391639534 1.28099863789976e-17)
(0.778471864922458 0.274496479523749 1.21250340620273e-17)
(0.771340971390887 0.163388470830659 -5.73815066910166e-18)
(0.670030369322982 0.0701314647736622 -1.52735393992978e-21)
(0.511369394211706 0.0171979950707728 -4.60151327508303e-19)
(0.409577589827538 0.00238240896866838 0)
(0.522482259374903 0.000873677487962601 0)
(0.515097121020922 -0.00404929942989551 1.60837571513075e-21)
(0.4680160910828 -0.0225195239111089 3.34653342953567e-18)
(0.286524516770419 -0.0317048437960444 0)
(0.0260809488604097 0.00664563034112322 0)
(-0.099966526343613 0.0533604426302368 -6.2597306357103e-17)
(-0.0902978606782264 0.0549677174614059 -6.21752626577875e-17)
(-0.0716310587785844 0.0500847740019265 0)
(-0.0587111048283001 0.0448656231651908 6.59762409971871e-17)
(-0.0493812491800081 0.0398701335822875 8.39267649319088e-21)
(-0.0429080517569981 0.0355309231279233 -8.74982691446645e-21)
(-0.0380224664920768 0.0315116956934643 -7.52941369631274e-17)
(-0.0350565090391789 0.0286863748188279 -7.92561617869484e-17)
(-0.0339748137956484 0.0275032255937344 8.2768641022749e-17)
(-0.0346277495008578 0.0278310503713374 8.52247440572541e-17)
(-0.0371524984309443 0.0297793689528767 0)
(-0.0417360108624958 0.0333965780683641 -8.57999464392293e-20)
(-0.0481995844111955 0.0384933098812913 1.73444985496412e-19)
(-0.0559693613948973 0.0444976667968309 3.3784468708102e-23)
(-0.0640804921241766 0.0503607309526672 -8.49756549348418e-20)
(-0.0721169841236688 0.0553567600326704 8.62289097559191e-17)
(-0.0797950413095099 0.0590151057762436 -8.53958574444925e-17)
(-0.0867696076316058 0.0608638301171342 8.44252622693471e-17)
(-0.0928102941583494 0.0606018699485378 8.38200933290871e-17)
(-0.0980019080930379 0.058248171536931 -1.61394713747109e-19)
(-0.102777026777182 0.0542503565638008 -1.43383199218096e-22)
(-0.107201412648235 0.0490384207355033 -7.10051946850455e-15)
(-0.110987741835337 0.0426680772874037 -7.01402336732951e-15)
(-0.114317537995724 0.0354272753780528 3.86985981190857e-17)
(-0.117914317952947 0.0277727743320767 1.4989628080876e-19)
(-0.12330906349132 0.02022955377603 1.87168270227804e-17)
(-0.133910171347242 0.0134307647202806 8.74974435228347e-18)
(-0.154952361841546 0.0081352189339735 1.07553714820869e-18)
(-0.179623439941968 0.00612313002918709 -1.07540542428908e-19)
(-0.196232239882485 0.00469257477423586 -4.90839194881551e-15)
(-0.208596948286609 0.00361987911831526 -4.53480480226305e-15)
(-0.217656694175163 0.00286349029202635 0)
(-0.224582379382701 0.00229708797514419 -8.4580964222551e-20)
(-0.22980287560227 0.00186477687067461 8.09102010408247e-20)
(-0.233717230752535 0.00151455296356966 0)
(-0.236521130524975 0.00122085182091035 0)
(-0.238375605987914 0.000963525805733566 0)
(-0.239378162354187 0.000731903998733829 0)
(-0.239606897781886 0.000518118252648158 0)
(-0.239117542386943 0.000317787958453927 0)
(-0.23795638138574 0.000127889227095872 0)
(-0.23616131963653 -5.295600805666e-05 0)
(-0.233773119735447 -0.000225351425052709 3.16009184243854e-20)
(-0.230822069558105 -0.000390077411743343 -3.08344693565633e-20)
(-0.227339738348074 -0.000547960288419106 0)
(-0.22336070163484 -0.000698533222542411 0)
(-0.21891433866269 -0.00084110348629883 2.94675645138005e-20)
(-0.214031170543388 -0.000975514023286772 1.3580603855666e-22)
(-0.208741803297504 -0.00110148458155592 -2.8636499521566e-20)
(-0.2030769833184 -0.00121877451918757 1.42516922769284e-20)
(-0.197067530944069 -0.00132719005322764 -1.40745664311988e-20)
(-0.190744232801821 -0.00142659419236176 0)
(-0.184137706261048 -0.00151691451861759 0)
(-0.177278249980686 -0.00159814563704774 0)
(-0.170195691615983 -0.00167034865615985 0)
(-0.162919238088016 -0.00173364863722368 -1.39122465449175e-20)
(-0.155477335719236 -0.00178822952600792 1.38604805352689e-20)
(-0.147897543748084 -0.00183432843366651 0)
(-0.140206423525338 -0.00187222867555403 0)
(-0.132429446148078 -0.00190225245241345 -7.02866830096433e-21)
(-0.124590919060525 -0.00192475320843613 7.03709162155054e-21)
(-0.116713931356008 -0.00194010840298837 0)
(-0.10882031796195 -0.00194871207807286 0)
(-0.100930641660013 -0.00195096827096816 0)
(-0.0930641920166047 -0.00194728448499447 0)
(-0.0852389995739507 -0.00193806623714485 0)
(-0.0774718638368718 -0.00192371168347635 0)
(-0.069778394823756 -0.00190460707264057 0)
(-0.0621730645482704 -0.00188112308127378 0)
(-0.0546692679141541 -0.00185361126658117 7.72476318191204e-21)
(-0.0472793939666079 -0.00182240087262822 -1.56371775383739e-20)
(-0.0400149019755572 -0.00178779689155009 7.91931384395978e-21)
(-0.0328864079975909 -0.00175007721153661 0)
(-0.0259037692139751 -0.00170949190395608 1.63774737931127e-20)
(-0.0190761917629946 -0.00166625831337834 -1.65958695861628e-20)
(-0.0124123136776045 -0.00162056461535921 0)
(-0.00592035005465932 -0.00157258231682086 0)
(0.000391853028263484 -0.00152239904642521 0)
(0.00651661400982183 -0.00147004061496493 0)
(0.0124463824375789 -0.00141540251673871 1.7808398394329e-20)
(0.0181734179096178 -0.0013584851579546 -1.79334718318483e-20)
(0.0236898948515753 -0.00129944406918484 -3.63107136307776e-20)
(0.0289872504986959 -0.00123812975533237 -8.11844002677002e-23)
(0.0340567775786438 -0.00117438914053113 3.70333650100246e-20)
(0.0388880788104559 -0.00110790310543266 3.75603094029821e-20)