/*--------------------------------*- C++ -*----------------------------------*\
| =========                 |                                                 |
| \\      /  F ield         | OpenFOAM: The Open Source CFD Toolbox           |
|  \\    /   O peration     | Version:  4.1                                   |
|   \\  /    A nd           | Web:      www.OpenFOAM.org                      |
|    \\/     M anipulation  |                                                 |
\*---------------------------------------------------------------------------*/
FoamFile
{
    version     2.0;
    format      ascii;
    class       volVectorField;
    location    "30000";
    object      wallShearStress;
}
// * * * * * * * * * * * * * * * * * * * * * * * * * * * * * * * * * * * * * //

dimensions      [0 2 -2 0 0 0 0];

internalField   uniform (0 0 0);

boundaryField
{
    bottomWall
    {
        type            calculated;
        value           nonuniform List<vector> 
140
(
(-0.00329443600139063 1.85513435427221e-05 0)
(-0.00400583335169648 5.7914457843158e-05 8.60957776481168e-42)
(-0.00309637523221849 0.000230133857029445 -1.44888145979786e-22)
(-0.000263973153849421 9.0391805480423e-05 2.53370230195654e-22)
(0.00148319634418876 -0.000422039956224002 1.27283970774467e-18)
(0.00145914134344195 -0.000670630301405912 0)
(0.00102200470719147 -0.000602391499161983 1.27856354298112e-22)
(0.000791919744554131 -0.000536780978437052 -7.96670163190537e-23)
(0.000616566026643066 -0.000457041980828592 2.62776408794797e-18)
(0.000486078981721045 -0.000382126690794486 -2.63581918007508e-18)
(0.000394388432884356 -0.000319363451485517 3.23246988427563e-22)
(0.000318677037216089 -0.000260695238178185 -5.29288483001746e-18)
(0.000265377908412643 -0.000216491634222757 -6.46486805548318e-22)
(0.000233836136170066 -0.000190292305378683 2.65203142291148e-18)
(0.000218445900954632 -0.000177706311139171 -2.65199503348574e-18)
(0.000218949233919341 -0.000178106598533704 1.14352090447992e-34)
(0.000235992780832744 -0.00019118531448967 2.31713446434089e-34)
(0.000268825744747426 -0.000215890136855465 -2.63830929696834e-18)
(0.000314230195462422 -0.000248893357263367 2.62968340436533e-18)
(0.000361749035523883 -0.000281136515415117 2.56595259045984e-21)
(0.000407061157044799 -0.000307174993172664 2.56053456359604e-21)
(0.000447793682505834 -0.000324211382510436 2.60841706441162e-18)
(0.000479872273669912 -0.000328907818948896 5.09108009158136e-21)
(0.000498805314004996 -0.000318651723754152 -2.53856566217856e-21)
(0.000502141086343864 -0.000293555075401963 -1.09838192140835e-34)
(0.000497157919231716 -0.000260020358865269 -1.29594321553039e-18)
(0.000488196613234833 -0.00022329930369673 -1.29954830105519e-18)
(0.0004702317344644 -0.00018302743121708 5.05137844811032e-21)
(0.000442614164580915 -0.000141046423005031 6.29594774300417e-35)
(0.00041004804393784 -0.000100556224206671 -6.65649537028838e-33)
(0.000375048479290407 -6.23432870672566e-05 5.06463270698568e-21)
(0.000331834113137956 -2.98366854058232e-05 3.21991794418329e-19)
(0.000446983708642082 -1.58739290888307e-05 -1.84612744397617e-16)
(0.000692160927615308 -1.19174066322141e-05 -1.84436203448264e-16)
(0.000871603221260557 -1.10657216582976e-05 2.41568401317329e-21)
(0.00102432694654354 -1.03222114382265e-05 -2.38944478613689e-21)
(0.00114598950730422 -9.85530936887055e-06 2.37408128065642e-21)
(0.00124867286200147 -9.47782600312727e-06 4.47690715730319e-24)
(0.00133457704466015 -9.24047643438622e-06 5.26363543529936e-24)
(0.00140845489140324 -9.05489373799244e-06 -4.68262442689361e-21)
(0.00147198669682423 -8.90871743175753e-06 -6.60937286667903e-24)
(0.00152701360805465 -8.76468240594211e-06 2.33027110635574e-21)
(0.00157438562083503 -8.61210521645778e-06 0)
(0.00161483555801856 -8.43652337708531e-06 -2.33813121602555e-21)
(0.0016487563947859 -8.23293706242308e-06 -8.71378709529196e-24)
(0.00167646006725036 -7.99690131130504e-06 4.68122836677015e-21)
(0.00169815041463098 -7.72787697120568e-06 1.74531101044367e-16)
(0.00171400757718016 -7.42543498049194e-06 1.76795491921322e-16)
(0.00172417160316053 -7.08896502373653e-06 -2.35613110633617e-21)
(0.00172872406148646 -6.71823372066001e-06 -2.3760866096599e-21)
(0.00172774593832908 -6.31686517996573e-06 2.37553835417865e-21)
(0.00172141385200886 -5.89015597922468e-06 -1.19878275101677e-21)
(0.00170989626035792 -5.44298685717378e-06 -1.79098176587882e-16)
(0.00169340292301906 -4.98011572836976e-06 -1.81415750254174e-16)
(0.00167216853962155 -4.50580284745621e-06 -1.21315001084366e-21)
(0.00164645089413338 -4.02426509083818e-06 -0)
(0.00161652844266362 -3.5396030221487e-06 -0)
(0.00158269708416566 -3.05571771472671e-06 1.80529010362314e-32)
(0.00154526652001284 -2.57624790704961e-06 -1.81843161522975e-32)
(0.0015045564295 -2.10452163683483e-06 -0)
(0.00146089258526094 -1.64351807249373e-06 1.07361273659227e-38)
(0.00141460307019092 -1.19584698534509e-06 6.4082696919072e-22)
(0.00136601471825674 -7.63736377195425e-07 -6.43082859222325e-22)
(0.00131544983094404 -3.49032468776106e-07 6.51206673569094e-22)
(0.00126322325731008 4.67922521427224e-08 -6.53732654539544e-22)
(0.0012096398680653 4.2262203439462e-07 1.97390023391719e-16)
(0.00115499243732795 7.77677668624616e-07 1.00288766794338e-17)
(0.00109955993588997 1.1114890332086e-06 -1.91171432358155e-16)
(0.00104360623282443 1.42386755976793e-06 1.68971907125625e-22)
(0.000987379179441764 1.71487392232346e-06 0)
(0.000931110054949262 1.98478842457492e-06 -0)
(0.000875013322894453 2.23407905418476e-06 1.73811321031912e-22)
(0.000819286703605848 2.46337085937283e-06 -1.74588328416419e-22)
(0.000764111485087775 2.67341868212342e-06 -0)
(0.000709653037480696 2.86508077303206e-06 0)
(0.000656061548268699 3.0392923891299e-06 0)
(0.00060347287059159 3.19704747390406e-06 0)
(0.000552009559999518 3.33937353456905e-06 0)
(0.000501781869038453 3.46732593566295e-06 0)
(0.000452889111151955 3.58195010608596e-06 0)
(0.000405420663120421 3.68430847243618e-06 0)
(0.000359457724229613 3.77538927899112e-06 0)
(0.000315073891036367 3.85602916675308e-06 0)
(0.000272337950647132 3.92694060509736e-06 0)
(0.000231313513757558 3.99052813989013e-06 0)
(0.000192062664926318 4.04793061377141e-06 2.29735026482049e-16)
(0.000154645309275462 4.09880729620718e-06 4.60532997049933e-16)
(0.000119127144924802 4.1494123528466e-06 2.30650228206909e-16)
(8.55678494745231e-05 4.19983103353091e-06 0)
(5.4047380793069e-05 4.24344789566614e-06 -3.13141049372336e-21)
(2.46341391163701e-05 4.28093217338662e-06 3.13994694309334e-21)
(-2.55883779904803e-06 4.31006751399689e-06 3.15682502272638e-21)
(-2.74562790095467e-05 4.33221002793396e-06 -3.15399160831801e-21)
(-4.98710455099769e-05 4.34590865628212e-06 0)
(-6.97290928633267e-05 4.35750160594498e-06 0)
(-8.66922538818979e-05 4.35833278419664e-06 -3.16532911639678e-21)
(-0.000100745430786175 4.36154570226687e-06 6.33114844695397e-21)
(-0.000111211847473837 4.34456019263935e-06 -3.16682581382716e-21)
(-0.000118338396015223 4.34228939026968e-06 3.17783280373021e-21)
(-0.000120650995813996 4.29606485617394e-06 -3.17847143470514e-21)
(-0.000119305598591491 4.29540765547492e-06 3.19087385820663e-21)
(-0.000110891615535512 4.18000907958848e-06 -6.39143886780337e-21)
(-9.86949372912082e-05 4.20209798410072e-06 6.41099217594322e-21)
(-7.44738738429219e-05 3.94031767993749e-06 -3.21383423093052e-21)
(-4.83291363549458e-05 4.07389917929319e-06 0)
(1.57351464710128e-07 3.51904326025877e-06 3.24450475152244e-21)
(4.09427869039339e-05 3.92292812069207e-06 6.60334238306569e-24)
(0.000130479320734213 3.10368081605756e-06 -3.22209852972854e-21)
(0.000184426563744712 1.68321104705683e-05 6.47006560117128e-21)
(0.000170741214305734 2.46113035559249e-05 8.225223947819e-19)
(0.000154467234084253 2.96629681888979e-05 2.5578757073893e-35)
(0.000113593843795151 2.42558547095508e-05 1.67234144429901e-18)
(6.31945389273809e-05 9.23612509650603e-06 -4.49509039754443e-35)
(-4.18947338560046e-06 -1.99262883807034e-05 1.69278059550267e-18)
(-8.58938500481987e-05 -6.47066924499633e-05 1.68436209527969e-18)
(-0.000193469128804378 -0.000132176610372789 3.35938467975796e-18)
(-0.000330628918064865 -0.000226035711608046 -6.69547384298115e-18)
(-0.000491047927513881 -0.000342534968869924 6.01853107621011e-36)
(-0.000674397937014943 -0.000479640610322817 -3.32131482974184e-18)
(-0.000878334594474031 -0.000633785882889919 6.01853107621011e-36)
(-0.00110196493024997 -0.000801239290644071 0)
(-0.00132866437380939 -0.000968984858562113 3.27536279144049e-18)
(-0.0015394523522644 -0.00112748578693163 3.19403033072841e-21)
(-0.00174679128199672 -0.00128916017358792 2.35098870164458e-38)
(-0.00197385402461014 -0.00147051506793784 -7.01623190647053e-38)
(-0.00222505848937835 -0.00167796899687042 9.29110734889936e-35)
(-0.00253179946435492 -0.0019332156842361 1.60807627192489e-34)
(-0.00291463248160469 -0.00225469274416794 -3.46386045560076e-22)
(-0.00349600977195565 -0.00271788691786089 3.15053685166929e-18)
(-0.00434054731129104 -0.00332737815034852 -3.08826365864778e-18)
(-0.00543905371046269 -0.00402782846815375 0)
(-0.00685649436931091 -0.00478368047119054 1.02628402585051e-21)
(-0.00873213726733056 -0.00554959825689373 -7.97342905775313e-23)
(-0.0110980676420026 -0.00611951267207456 -2.46556269390754e-18)
(-0.0135316469677044 -0.00598823672918832 2.19496937328532e-18)
(-0.0139444673296882 -0.0043150610714981 1.14970168735297e-22)
(-0.0109307281307978 -0.00202375852608943 -4.5911400416214e-19)
(-0.00713261520116262 -0.000622023094040071 2.42494757493133e-19)
(-0.00380096541656161 -8.39047431265024e-05 -6.22761952320028e-23)
(-0.0027431626546896 1.40631495249639e-05 0)
)
;
    }
    topWall
    {
        type            calculated;
        value           nonuniform List<vector> 
140
(
(-0.00457908354820295 1.51704789399626e-07 0)
(-0.00457746196293014 2.29815913016967e-07 0)
(-0.00457310533459202 3.01537865043386e-07 0)
(-0.00456621500502199 3.66761797664944e-07 0)
(-0.0045569952190717 4.25502861796754e-07 0)
(-0.00454564767701846 4.77874551872841e-07 0)
(-0.0045323695715764 5.24156905398893e-07 0)
(-0.0045173531063161 5.64620047699031e-07 0)
(-0.00450078473978232 5.99579138670147e-07 0)
(-0.00448284219459823 6.29438445497384e-07 0)
(-0.00446369122467537 6.54671391037059e-07 0)
(-0.00444348336194611 6.75790289813113e-07 0)
(-0.00442235462166718 6.93320789579364e-07 0)
(-0.00440042497059741 7.07782183478618e-07 0)
(-0.00437779839023135 7.19672681199199e-07 0)
(-0.00435456339868914 7.29458418325491e-07 0)
(-0.00433079393573838 7.37565168123853e-07 0)
(-0.0043065505228592 7.4437294067007e-07 0)
(-0.00428188161443458 7.50212769022701e-07 0)
(-0.00425682507048225 7.55365482398461e-07 0)
(-0.0042314096874094 7.60062145766936e-07 0)
(-0.00420565673291374 7.64485812395901e-07 0)
(-0.00417958144325233 7.68774282579548e-07 0)
(-0.00415319444620587 7.73023702994439e-07 0)
(-0.00412650308475656 7.77292528645958e-07 0)
(-0.00409951262613878 7.8160578229567e-07 0)
(-0.00407222734493684 7.85959426308607e-07 0)
(-0.00404465147431553 7.90324717556653e-07 0)
(-0.00401679002487653 7.94652421473634e-07 0)
(-0.00398864947227904 7.98876878341464e-07 0)
(-0.00396023831828136 8.02919796013082e-07 0)
(-0.00393156753068465 8.06693822895407e-07 0)
(-0.00390265086925818 8.10105799173705e-07 0)
(-0.00387350510568439 8.1305974019028e-07 0)
(-0.00384415014562336 8.15459491929722e-07 0)
(-0.00381460906265556 8.17211061851572e-07 0)
(-0.00378490805363694 8.18224620360028e-07 0)
(-0.00375507632604855 8.18416143765914e-07 0)
(-0.00372514592838172 8.17708722229783e-07 0)
(-0.00369515153410237 8.1603354824738e-07 0)
(-0.003665130189432 8.1333060883982e-07 0)
(-0.00363512103442067 8.0954911553112e-07 0)
(-0.00360516500587176 8.04647704077684e-07 0)
(-0.00357530452973478 7.98594434483846e-07 0)
(-0.00354558320966978 7.91366622571391e-07 0)
(-0.00351604551754658 7.82950530894831e-07 0)
(-0.00348673649084817 7.73340941298041e-07 0)
(-0.00345770144116161 7.62540636292629e-07 0)
(-0.00342898567725237 7.50559803131473e-07 0)
(-0.00340063424562036 7.37415381220979e-07 0)
(-0.00337269169081879 7.23130369295929e-07 0)
(-0.00334520183735783 7.07733103575022e-07 0)
(-0.00331820759451806 6.91256521277738e-07 0)
(-0.00329175078500834 6.73737417072233e-07 0)
(-0.00326587199798124 6.55215708231097e-07 0)
(-0.0032406104666089 6.35733710537597e-07 0)
(-0.00321600397011302 6.15335434320934e-07 0)
(-0.00319208875983024 5.94065910401637e-07 0)
(-0.00316889950869473 5.7197054414613e-07 0)
(-0.00314646928323935 5.49094513283694e-07 0)
(-0.00312482953710781 5.25482197514733e-07 0)
(-0.00310401012482481 5.0117666182617e-07 0)
(-0.00308403933449246 4.76219177180091e-07 0)
(-0.00306494393793289 4.50648796263687e-07 0)
(-0.00304674925675793 4.2450197035774e-07 0)
(-0.00302947924268406 3.97812226765461e-07 0)
(-0.00301315657049941 3.70609882343756e-07 0)
(-0.00299780274192691 3.42921817130744e-07 0)
(-0.00298343819871122 3.14771291026814e-07 0)
(-0.00297008244318585 2.86177810710386e-07 0)
(-0.00295775416469142 2.57157040353612e-07 0)
(-0.00294647137005622 2.277207613355e-07 0)
(-0.00293625151673164 1.97876870564664e-07 0)
(-0.00292711164655402 1.67629426952541e-07 0)
(-0.00291906851955724 1.36978723408409e-07 0)
(-0.0029121387445199 1.05921413684299e-07 0)
(-0.00290633890921 7.44506298409489e-08 0)
(-0.00290168569983143 4.25561080185389e-08 0)
(-0.00289819603644958 1.02244965515775e-08 0)
(-0.00289588713973149 -2.25615630519223e-08 0)
(-0.002894776817301 -5.58330879154105e-08 0)
(-0.00289488379711174 -8.9589417194212e-08 0)
(-0.00289622480341989 -1.24003491568933e-07 0)
(-0.0028988304815687 -1.59123950893368e-07 0)
(-0.00290272684510092 -1.94870367824748e-07 0)
(-0.00290793808332075 -2.31256699164271e-07 0)
(-0.00291448410337552 -2.68188423554706e-07 0)
(-0.00292238306163395 -3.05634613750776e-07 0)
(-0.00293165384877542 -3.43633588807631e-07 0)
(-0.00294231697651904 -3.82225484068682e-07 0)
(-0.00295439404484937 -4.21432285828995e-07 0)
(-0.00296790718922491 -4.6126304979964e-07 0)
(-0.00298287873022519 -5.01717251129772e-07 0)
(-0.00299933089200739 -5.42785819949937e-07 0)
(-0.00301728551920951 -5.84450269244551e-07 0)
(-0.00303676375620475 -6.26681372845031e-07 0)
(-0.00305778566941265 -6.69437127655108e-07 0)
(-0.00308036980564038 -7.12661059092546e-07 0)
(-0.00310453269506194 -7.56280614451911e-07 0)
(-0.00313028830350521 -8.00205572624081e-07 0)
(-0.00315764742548197 -8.4432596741228e-07 0)
(-0.00318661700795121 -8.88510084553594e-07 0)
(-0.00321719941010956 -9.32602579247385e-07 0)
(-0.00324939159887307 -9.76422525094007e-07 0)
(-0.00328318428030911 -1.01976158874166e-06 0)
(-0.00331856097052461 -1.06238234299589e-06 0)
(-0.00335549701241937 -1.10401687278492e-06 0)
(-0.00339395854699406 -1.14436569809419e-06 0)
(-0.00343390145154591 -1.18309721220886e-06 0)
(-0.00347527026156715 -1.21984769906552e-06 0)
(-0.00351799709598767 -1.25422208296809e-06 0)
(-0.00356200061054191 -1.28579554532575e-06 0)
(-0.00360718500763571 -1.31411612034442e-06 0)
(-0.00365343913541084 -1.33870843404941e-06 0)
(-0.00370063571391356 -1.35907874202602e-06 0)
(-0.00374863073112765 -1.37472141443446e-06 0)
(-0.00379726305657105 -1.38512700184026e-06 0)
(-0.00384635432418642 -1.3897919791621e-06 0)
(-0.00389570913915632 -1.38823019896971e-06 0)
(-0.00394511566399008 -1.37998600254818e-06 0)
(-0.0039943466372156 -1.36464883588272e-06 0)
(-0.00404316087257967 -1.34186907675775e-06 0)
(-0.00409130527689632 -1.31137464089492e-06 0)
(-0.00413851741016058 -1.27298776555687e-06 0)
(-0.00418452859210143 -1.22664122189402e-06 0)
(-0.00422906753475005 -1.17239305978728e-06 0)
(-0.00427186445197414 -1.11043889169907e-06 0)
(-0.00431265556509859 -1.04112068055864e-06 0)
(-0.00435118789055164 -9.64931017761143e-07 0)
(-0.00438722416454002 -8.82512040153543e-07 0)
(-0.00442054773110596 -7.94648294800171e-07 0)
(-0.00445096720223605 -7.02253295959898e-07 0)
(-0.00447832068540008 -6.06349745007554e-07 0)
(-0.00450247938250813 -5.08044103527692e-07 0)
(-0.00452335037297503 -4.08496256687816e-07 0)
(-0.00454087843819956 -3.08886040587291e-07 0)
(-0.00455504680678212 -2.10377883022592e-07 0)
(-0.00456587679974515 -1.14086287104067e-07 0)
(-0.00457342632533065 -2.10418834657288e-08 0)
(-0.00457778733248531 6.78184863760289e-08 0)
)
;
    }
    inlet_half0
    {
        type            cyclic;
    }
    inlet_half1
    {
        type            cyclic;
    }
    outlet_half0
    {
        type            cyclic;
    }
    outlet_half1
    {
        type            cyclic;
    }
    sideRight_half0
    {
        type            empty;
    }
    sideRight_half1
    {
        type            empty;
    }
    sideLeft_half0
    {
        type            empty;
    }
    sideLeft_half1
    {
        type            empty;
    }
}


// ************************************************************************* //
