/*--------------------------------*- C++ -*----------------------------------*\
| =========                 |                                                 |
| \\      /  F ield         | OpenFOAM: The Open Source CFD Toolbox           |
|  \\    /   O peration     | Version:  3.0.1                                 |
|   \\  /    A nd           | Web:      www.OpenFOAM.org                      |
|    \\/     M anipulation  |                                                 |
\*---------------------------------------------------------------------------*/
FoamFile
{
    version     2.0;
    format      ascii;
    class       volVectorField;
    location    "50000";
    object      cellCentres;
}
// * * * * * * * * * * * * * * * * * * * * * * * * * * * * * * * * * * * * * //

dimensions      [0 1 0 0 0 0 0];

internalField   nonuniform List<vector> 
2500
(
(0.005 0.0253730975879 0.0253730975879)
(0.005 0.0749545528056 0.0253730975879)
(0.005 0.12225999494 0.0253730975879)
(0.005 0.167393903287 0.0253730975879)
(0.005 0.21045596107 0.0253730975879)
(0.005 0.251541275603 0.0253730975879)
(0.005 0.290740588344 0.0253730975879)
(0.005 0.328140475307 0.0253730975879)
(0.005 0.363823538274 0.0253730975879)
(0.005 0.397868587233 0.0253730975879)
(0.005 0.430350814436 0.0253730975879)
(0.005 0.461341960473 0.0253730975879)
(0.005 0.490910472714 0.0253730975879)
(0.005 0.519121656485 0.0253730975879)
(0.005 0.546037819304 0.0253730975879)
(0.005 0.57171840849 0.025373097588)
(0.005 0.596220142462 0.0253730975879)
(0.005 0.619597136007 0.0253730975879)
(0.005 0.6419010198 0.0253730975879)
(0.005 0.663181054431 0.0253730975879)
(0.005 0.68348423921 0.0253730975879)
(0.005 0.702855415963 0.025373097588)
(0.005 0.721337368074 0.0253730975879)
(0.005 0.738970914977 0.0253730975879)
(0.005 0.75579500231 0.0253730975879)
(0.005 0.771846787929 0.0253730975879)
(0.005 0.787161723973 0.0253730975879)
(0.005 0.801773635175 0.0253730975879)
(0.005 0.815714793553 0.0253730975879)
(0.005 0.829015989696 0.025373097588)
(0.005 0.841706600767 0.0253730975879)
(0.005 0.853814655382 0.0253730975879)
(0.005 0.865366895517 0.0253730975879)
(0.005 0.876388835572 0.0253730975879)
(0.005 0.886904818719 0.0253730975879)
(0.005 0.896938070669 0.0253730975879)
(0.005 0.906510750967 0.025373097588)
(0.005 0.915644001936 0.0253730975879)
(0.005 0.924357995371 0.0253730975879)
(0.005 0.932671977087 0.0253730975879)
(0.005 0.940604309433 0.0253730975879)
(0.005 0.948172511841 0.0253730975879)
(0.005 0.955393299522 0.0253730975879)
(0.005 0.962282620386 0.0253730975879)
(0.005 0.968855690256 0.0253730975879)
(0.005 0.975127026485 0.0253730975879)
(0.005 0.981110480012 0.0253730975879)
(0.005 0.986819265955 0.0253730975879)
(0.005 0.992265992798 0.0253730975879)
(0.005 0.997462690241 0.0253730975879)
(0.005 0.0253730975879 0.0749545528056)
(0.005 0.0749545528056 0.0749545528056)
(0.005 0.12225999494 0.0749545528056)
(0.005 0.167393903287 0.0749545528056)
(0.005 0.21045596107 0.0749545528056)
(0.005 0.251541275603 0.0749545528056)
(0.005 0.290740588344 0.0749545528056)
(0.005 0.328140475307 0.0749545528056)
(0.005 0.363823538274 0.0749545528056)
(0.005 0.397868587232 0.0749545528056)
(0.005 0.430350814436 0.0749545528056)
(0.005 0.461341960473 0.0749545528056)
(0.005 0.490910472713 0.0749545528056)
(0.005 0.519121656485 0.0749545528056)
(0.005 0.546037819304 0.0749545528056)
(0.005 0.571718408489 0.0749545528056)
(0.005 0.596220142462 0.0749545528056)
(0.005 0.619597136007 0.0749545528056)
(0.005 0.6419010198 0.0749545528056)
(0.005 0.663181054431 0.0749545528056)
(0.005 0.68348423921 0.0749545528056)
(0.005 0.702855415963 0.0749545528056)
(0.005 0.721337368074 0.0749545528056)
(0.005 0.738970914977 0.0749545528056)
(0.005 0.755795002311 0.0749545528056)
(0.005 0.771846787928 0.0749545528056)
(0.005 0.787161723973 0.0749545528056)
(0.005 0.801773635175 0.0749545528056)
(0.005 0.815714793553 0.0749545528056)
(0.005 0.829015989696 0.0749545528056)
(0.005 0.841706600767 0.0749545528056)
(0.005 0.853814655382 0.0749545528056)
(0.005 0.865366895517 0.0749545528056)
(0.005 0.876388835572 0.0749545528056)
(0.005 0.886904818719 0.0749545528056)
(0.005 0.896938070668 0.0749545528056)
(0.005 0.906510750967 0.0749545528056)
(0.005 0.915644001937 0.0749545528056)
(0.005 0.92435799537 0.0749545528056)
(0.005 0.932671977087 0.0749545528056)
(0.005 0.940604309433 0.0749545528056)
(0.005 0.948172511841 0.0749545528056)
(0.005 0.955393299522 0.0749545528056)
(0.005 0.962282620385 0.0749545528056)
(0.005 0.968855690256 0.0749545528056)
(0.005 0.975127026485 0.0749545528056)
(0.005 0.981110480012 0.0749545528056)
(0.005 0.986819265955 0.0749545528056)
(0.005 0.992265992799 0.0749545528056)
(0.005 0.997462690241 0.0749545528056)
(0.005 0.0253730975879 0.12225999494)
(0.005 0.0749545528056 0.12225999494)
(0.005 0.12225999494 0.12225999494)
(0.005 0.167393903287 0.12225999494)
(0.005 0.21045596107 0.12225999494)
(0.005 0.251541275603 0.12225999494)
(0.005 0.290740588345 0.12225999494)
(0.005 0.328140475307 0.12225999494)
(0.005 0.363823538274 0.12225999494)
(0.005 0.397868587232 0.12225999494)
(0.005 0.430350814436 0.12225999494)
(0.005 0.461341960473 0.12225999494)
(0.005 0.490910472713 0.12225999494)
(0.005 0.519121656485 0.12225999494)
(0.005 0.546037819304 0.12225999494)
(0.005 0.571718408489 0.12225999494)
(0.005 0.596220142461 0.12225999494)
(0.005 0.619597136007 0.12225999494)
(0.005 0.6419010198 0.12225999494)
(0.005 0.663181054431 0.12225999494)
(0.005 0.68348423921 0.12225999494)
(0.005 0.702855415963 0.12225999494)
(0.005 0.721337368074 0.12225999494)
(0.005 0.738970914978 0.12225999494)
(0.005 0.75579500231 0.12225999494)
(0.005 0.771846787929 0.12225999494)
(0.005 0.787161723973 0.12225999494)
(0.005 0.801773635175 0.12225999494)
(0.005 0.815714793553 0.12225999494)
(0.005 0.829015989697 0.12225999494)
(0.005 0.841706600768 0.12225999494)
(0.005 0.853814655382 0.12225999494)
(0.005 0.865366895517 0.12225999494)
(0.005 0.876388835572 0.12225999494)
(0.005 0.886904818719 0.12225999494)
(0.005 0.896938070668 0.12225999494)
(0.005 0.906510750967 0.12225999494)
(0.005 0.915644001937 0.12225999494)
(0.005 0.924357995371 0.12225999494)
(0.005 0.932671977087 0.12225999494)
(0.005 0.940604309433 0.12225999494)
(0.005 0.948172511841 0.12225999494)
(0.005 0.955393299522 0.12225999494)
(0.005 0.962282620385 0.12225999494)
(0.005 0.968855690256 0.12225999494)
(0.005 0.975127026485 0.12225999494)
(0.005 0.981110480012 0.12225999494)
(0.005 0.986819265955 0.12225999494)
(0.005 0.992265992798 0.12225999494)
(0.005 0.997462690241 0.12225999494)
(0.005 0.0253730975879 0.167393903287)
(0.005 0.0749545528056 0.167393903287)
(0.005 0.12225999494 0.167393903286)
(0.005 0.167393903286 0.167393903286)
(0.005 0.21045596107 0.167393903286)
(0.005 0.251541275603 0.167393903287)
(0.005 0.290740588345 0.167393903286)
(0.005 0.328140475307 0.167393903287)
(0.005 0.363823538274 0.167393903287)
(0.005 0.397868587233 0.167393903287)
(0.005 0.430350814436 0.167393903287)
(0.005 0.461341960473 0.167393903287)
(0.005 0.490910472714 0.167393903287)
(0.005 0.519121656485 0.167393903287)
(0.005 0.546037819304 0.167393903287)
(0.005 0.571718408489 0.167393903286)
(0.005 0.596220142461 0.167393903287)
(0.005 0.619597136007 0.167393903286)
(0.005 0.6419010198 0.167393903286)
(0.005 0.663181054431 0.167393903286)
(0.005 0.68348423921 0.167393903286)
(0.005 0.702855415963 0.167393903287)
(0.005 0.721337368074 0.167393903286)
(0.005 0.738970914978 0.167393903287)
(0.005 0.75579500231 0.167393903286)
(0.005 0.771846787929 0.167393903287)
(0.005 0.787161723973 0.167393903287)
(0.005 0.801773635175 0.167393903287)
(0.005 0.815714793553 0.167393903287)
(0.005 0.829015989696 0.167393903287)
(0.005 0.841706600767 0.167393903286)
(0.005 0.853814655382 0.167393903287)
(0.005 0.865366895517 0.167393903287)
(0.005 0.876388835572 0.167393903287)
(0.005 0.886904818719 0.167393903286)
(0.005 0.896938070668 0.167393903286)
(0.005 0.906510750967 0.167393903287)
(0.005 0.915644001936 0.167393903287)
(0.005 0.92435799537 0.167393903286)
(0.005 0.932671977087 0.167393903287)
(0.005 0.940604309433 0.167393903287)
(0.005 0.948172511841 0.167393903287)
(0.005 0.955393299523 0.167393903287)
(0.005 0.962282620385 0.167393903287)
(0.005 0.968855690256 0.167393903287)
(0.005 0.975127026485 0.167393903287)
(0.005 0.981110480012 0.167393903286)
(0.005 0.986819265955 0.167393903287)
(0.005 0.992265992799 0.167393903287)
(0.005 0.997462690241 0.167393903286)
(0.005 0.0253730975879 0.21045596107)
(0.005 0.0749545528056 0.21045596107)
(0.005 0.12225999494 0.21045596107)
(0.005 0.167393903286 0.21045596107)
(0.005 0.21045596107 0.21045596107)
(0.005 0.251541275603 0.21045596107)
(0.005 0.290740588345 0.21045596107)
(0.005 0.328140475307 0.21045596107)
(0.005 0.363823538274 0.21045596107)
(0.005 0.397868587232 0.21045596107)
(0.005 0.430350814436 0.21045596107)
(0.005 0.461341960473 0.21045596107)
(0.005 0.490910472714 0.21045596107)
(0.005 0.519121656485 0.21045596107)
(0.005 0.546037819304 0.21045596107)
(0.005 0.571718408489 0.21045596107)
(0.005 0.596220142462 0.21045596107)
(0.005 0.619597136007 0.21045596107)
(0.005 0.6419010198 0.21045596107)
(0.005 0.663181054431 0.21045596107)
(0.005 0.68348423921 0.21045596107)
(0.005 0.702855415963 0.21045596107)
(0.005 0.721337368074 0.21045596107)
(0.005 0.738970914977 0.21045596107)
(0.005 0.75579500231 0.21045596107)
(0.005 0.771846787928 0.21045596107)
(0.005 0.787161723973 0.21045596107)
(0.005 0.801773635175 0.21045596107)
(0.005 0.815714793553 0.21045596107)
(0.005 0.829015989697 0.21045596107)
(0.005 0.841706600768 0.21045596107)
(0.005 0.853814655382 0.21045596107)
(0.005 0.865366895517 0.21045596107)
(0.005 0.876388835572 0.21045596107)
(0.005 0.886904818719 0.21045596107)
(0.005 0.896938070669 0.21045596107)
(0.005 0.906510750967 0.21045596107)
(0.005 0.915644001937 0.21045596107)
(0.005 0.92435799537 0.21045596107)
(0.005 0.932671977087 0.21045596107)
(0.005 0.940604309433 0.21045596107)
(0.005 0.948172511841 0.21045596107)
(0.005 0.955393299523 0.21045596107)
(0.005 0.962282620385 0.21045596107)
(0.005 0.968855690256 0.21045596107)
(0.005 0.975127026485 0.21045596107)
(0.005 0.981110480012 0.21045596107)
(0.005 0.986819265955 0.21045596107)
(0.005 0.992265992799 0.21045596107)
(0.005 0.997462690241 0.21045596107)
(0.005 0.0253730975879 0.251541275603)
(0.005 0.0749545528056 0.251541275603)
(0.005 0.12225999494 0.251541275603)
(0.005 0.167393903287 0.251541275603)
(0.005 0.21045596107 0.251541275603)
(0.005 0.251541275603 0.251541275603)
(0.005 0.290740588345 0.251541275604)
(0.005 0.328140475307 0.251541275603)
(0.005 0.363823538274 0.251541275604)
(0.005 0.397868587233 0.251541275603)
(0.005 0.430350814436 0.251541275603)
(0.005 0.461341960473 0.251541275603)
(0.005 0.490910472714 0.251541275604)
(0.005 0.519121656485 0.251541275603)
(0.005 0.546037819304 0.251541275603)
(0.005 0.571718408489 0.251541275603)
(0.005 0.596220142462 0.251541275604)
(0.005 0.619597136007 0.251541275603)
(0.005 0.6419010198 0.251541275603)
(0.005 0.663181054431 0.251541275603)
(0.005 0.68348423921 0.251541275603)
(0.005 0.702855415963 0.251541275603)
(0.005 0.721337368074 0.251541275603)
(0.005 0.738970914977 0.251541275603)
(0.005 0.75579500231 0.251541275603)
(0.005 0.771846787928 0.251541275603)
(0.005 0.787161723973 0.251541275603)
(0.005 0.801773635175 0.251541275603)
(0.005 0.815714793553 0.251541275603)
(0.005 0.829015989696 0.251541275603)
(0.005 0.841706600768 0.251541275604)
(0.005 0.853814655382 0.251541275604)
(0.005 0.865366895517 0.251541275603)
(0.005 0.876388835572 0.251541275603)
(0.005 0.886904818719 0.251541275604)
(0.005 0.896938070668 0.251541275603)
(0.005 0.906510750967 0.251541275603)
(0.005 0.915644001936 0.251541275603)
(0.005 0.924357995371 0.251541275603)
(0.005 0.932671977087 0.251541275604)
(0.005 0.940604309433 0.251541275603)
(0.005 0.948172511841 0.251541275603)
(0.005 0.955393299522 0.251541275603)
(0.005 0.962282620385 0.251541275603)
(0.005 0.968855690256 0.251541275604)
(0.005 0.975127026485 0.251541275603)
(0.005 0.981110480012 0.251541275604)
(0.005 0.986819265955 0.251541275603)
(0.005 0.992265992798 0.251541275603)
(0.005 0.997462690241 0.251541275603)
(0.005 0.0253730975879 0.290740588345)
(0.005 0.0749545528056 0.290740588344)
(0.005 0.12225999494 0.290740588344)
(0.005 0.167393903286 0.290740588345)
(0.005 0.21045596107 0.290740588345)
(0.005 0.251541275603 0.290740588345)
(0.005 0.290740588345 0.290740588345)
(0.005 0.328140475307 0.290740588345)
(0.005 0.363823538274 0.290740588345)
(0.005 0.397868587232 0.290740588345)
(0.005 0.430350814436 0.290740588344)
(0.005 0.461341960473 0.290740588344)
(0.005 0.490910472713 0.290740588345)
(0.005 0.519121656485 0.290740588344)
(0.005 0.546037819304 0.290740588344)
(0.005 0.57171840849 0.290740588345)
(0.005 0.596220142462 0.290740588344)
(0.005 0.619597136007 0.290740588345)
(0.005 0.6419010198 0.290740588345)
(0.005 0.663181054432 0.290740588345)
(0.005 0.68348423921 0.290740588345)
(0.005 0.702855415963 0.290740588345)
(0.005 0.721337368074 0.290740588344)
(0.005 0.738970914978 0.290740588345)
(0.005 0.75579500231 0.290740588344)
(0.005 0.771846787928 0.290740588345)
(0.005 0.787161723973 0.290740588344)
(0.005 0.801773635175 0.290740588345)
(0.005 0.815714793553 0.290740588345)
(0.005 0.829015989696 0.290740588345)
(0.005 0.841706600768 0.290740588345)
(0.005 0.853814655382 0.290740588345)
(0.005 0.865366895517 0.290740588345)
(0.005 0.876388835572 0.290740588345)
(0.005 0.886904818719 0.290740588345)
(0.005 0.896938070668 0.290740588345)
(0.005 0.906510750967 0.290740588345)
(0.005 0.915644001936 0.290740588345)
(0.005 0.924357995371 0.290740588344)
(0.005 0.932671977087 0.290740588344)
(0.005 0.940604309433 0.290740588344)
(0.005 0.948172511841 0.290740588345)
(0.005 0.955393299523 0.290740588345)
(0.005 0.962282620386 0.290740588345)
(0.005 0.968855690256 0.290740588344)
(0.005 0.975127026485 0.290740588345)
(0.005 0.981110480012 0.290740588344)
(0.005 0.986819265955 0.290740588344)
(0.005 0.992265992799 0.290740588345)
(0.005 0.997462690241 0.290740588345)
(0.005 0.0253730975879 0.328140475307)
(0.005 0.0749545528056 0.328140475307)
(0.005 0.12225999494 0.328140475307)
(0.005 0.167393903286 0.328140475307)
(0.005 0.21045596107 0.328140475307)
(0.005 0.251541275603 0.328140475307)
(0.005 0.290740588344 0.328140475307)
(0.005 0.328140475307 0.328140475307)
(0.005 0.363823538274 0.328140475307)
(0.005 0.397868587232 0.328140475307)
(0.005 0.430350814436 0.328140475307)
(0.005 0.461341960473 0.328140475307)
(0.005 0.490910472713 0.328140475307)
(0.005 0.519121656485 0.328140475307)
(0.005 0.546037819304 0.328140475307)
(0.005 0.571718408489 0.328140475307)
(0.005 0.596220142462 0.328140475307)
(0.005 0.619597136007 0.328140475307)
(0.005 0.6419010198 0.328140475307)
(0.005 0.663181054431 0.328140475307)
(0.005 0.68348423921 0.328140475307)
(0.005 0.702855415963 0.328140475307)
(0.005 0.721337368074 0.328140475307)
(0.005 0.738970914977 0.328140475307)
(0.005 0.755795002311 0.328140475307)
(0.005 0.771846787928 0.328140475307)
(0.005 0.787161723973 0.328140475307)
(0.005 0.801773635175 0.328140475307)
(0.005 0.815714793553 0.328140475307)
(0.005 0.829015989697 0.328140475307)
(0.005 0.841706600767 0.328140475307)
(0.005 0.853814655382 0.328140475307)
(0.005 0.865366895517 0.328140475307)
(0.005 0.876388835572 0.328140475307)
(0.005 0.886904818719 0.328140475307)
(0.005 0.896938070668 0.328140475307)
(0.005 0.906510750967 0.328140475307)
(0.005 0.915644001936 0.328140475307)
(0.005 0.924357995371 0.328140475307)
(0.005 0.932671977087 0.328140475307)
(0.005 0.940604309433 0.328140475307)
(0.005 0.948172511841 0.328140475307)
(0.005 0.955393299522 0.328140475307)
(0.005 0.962282620386 0.328140475307)
(0.005 0.968855690256 0.328140475307)
(0.005 0.975127026485 0.328140475307)
(0.005 0.981110480012 0.328140475307)
(0.005 0.986819265955 0.328140475307)
(0.005 0.992265992799 0.328140475307)
(0.005 0.997462690241 0.328140475307)
(0.005 0.0253730975879 0.363823538274)
(0.005 0.0749545528056 0.363823538274)
(0.005 0.12225999494 0.363823538274)
(0.005 0.167393903287 0.363823538274)
(0.005 0.21045596107 0.363823538274)
(0.005 0.251541275603 0.363823538274)
(0.005 0.290740588345 0.363823538274)
(0.005 0.328140475307 0.363823538274)
(0.005 0.363823538274 0.363823538274)
(0.005 0.397868587232 0.363823538274)
(0.005 0.430350814436 0.363823538274)
(0.005 0.461341960473 0.363823538274)
(0.005 0.490910472713 0.363823538274)
(0.005 0.519121656485 0.363823538274)
(0.005 0.546037819304 0.363823538274)
(0.005 0.57171840849 0.363823538274)
(0.005 0.596220142462 0.363823538274)
(0.005 0.619597136007 0.363823538274)
(0.005 0.6419010198 0.363823538274)
(0.005 0.663181054431 0.363823538274)
(0.005 0.68348423921 0.363823538274)
(0.005 0.702855415963 0.363823538274)
(0.005 0.721337368074 0.363823538274)
(0.005 0.738970914978 0.363823538274)
(0.005 0.75579500231 0.363823538274)
(0.005 0.771846787928 0.363823538274)
(0.005 0.787161723973 0.363823538274)
(0.005 0.801773635175 0.363823538274)
(0.005 0.815714793553 0.363823538274)
(0.005 0.829015989696 0.363823538274)
(0.005 0.841706600768 0.363823538274)
(0.005 0.853814655382 0.363823538274)
(0.005 0.865366895517 0.363823538274)
(0.005 0.876388835572 0.363823538274)
(0.005 0.886904818719 0.363823538274)
(0.005 0.896938070668 0.363823538274)
(0.005 0.906510750967 0.363823538274)
(0.005 0.915644001937 0.363823538274)
(0.005 0.92435799537 0.363823538274)
(0.005 0.932671977087 0.363823538274)
(0.005 0.940604309433 0.363823538274)
(0.005 0.948172511841 0.363823538274)
(0.005 0.955393299522 0.363823538274)
(0.005 0.962282620385 0.363823538274)
(0.005 0.968855690256 0.363823538274)
(0.005 0.975127026485 0.363823538274)
(0.005 0.981110480012 0.363823538274)
(0.005 0.986819265955 0.363823538274)
(0.005 0.992265992799 0.363823538274)
(0.005 0.997462690241 0.363823538274)
(0.005 0.0253730975879 0.397868587233)
(0.005 0.0749545528056 0.397868587233)
(0.005 0.12225999494 0.397868587232)
(0.005 0.167393903286 0.397868587232)
(0.005 0.21045596107 0.397868587233)
(0.005 0.251541275603 0.397868587232)
(0.005 0.290740588344 0.397868587232)
(0.005 0.328140475307 0.397868587232)
(0.005 0.363823538274 0.397868587232)
(0.005 0.397868587233 0.397868587233)
(0.005 0.430350814436 0.397868587232)
(0.005 0.461341960473 0.397868587232)
(0.005 0.490910472714 0.397868587233)
(0.005 0.519121656485 0.397868587232)
(0.005 0.546037819304 0.397868587233)
(0.005 0.57171840849 0.397868587233)
(0.005 0.596220142462 0.397868587232)
(0.005 0.619597136007 0.397868587233)
(0.005 0.6419010198 0.397868587233)
(0.005 0.663181054431 0.397868587233)
(0.005 0.68348423921 0.397868587233)
(0.005 0.702855415963 0.397868587232)
(0.005 0.721337368074 0.397868587232)
(0.005 0.738970914978 0.397868587233)
(0.005 0.75579500231 0.397868587232)
(0.005 0.771846787928 0.397868587232)
(0.005 0.787161723973 0.397868587232)
(0.005 0.801773635175 0.397868587232)
(0.005 0.815714793553 0.397868587232)
(0.005 0.829015989696 0.397868587232)
(0.005 0.841706600767 0.397868587232)
(0.005 0.853814655382 0.397868587232)
(0.005 0.865366895517 0.397868587233)
(0.005 0.876388835572 0.397868587233)
(0.005 0.886904818719 0.397868587233)
(0.005 0.896938070669 0.397868587233)
(0.005 0.906510750967 0.397868587232)
(0.005 0.915644001937 0.397868587232)
(0.005 0.924357995371 0.397868587232)
(0.005 0.932671977087 0.397868587232)
(0.005 0.940604309433 0.397868587233)
(0.005 0.948172511841 0.397868587232)
(0.005 0.955393299522 0.397868587232)
(0.005 0.962282620386 0.397868587233)
(0.005 0.968855690256 0.397868587232)
(0.005 0.975127026485 0.397868587232)
(0.005 0.981110480012 0.397868587232)
(0.005 0.986819265955 0.397868587232)
(0.005 0.992265992798 0.397868587233)
(0.005 0.997462690241 0.397868587233)
(0.005 0.0253730975879 0.430350814436)
(0.005 0.0749545528056 0.430350814436)
(0.005 0.12225999494 0.430350814436)
(0.005 0.167393903287 0.430350814436)
(0.005 0.21045596107 0.430350814436)
(0.005 0.251541275603 0.430350814436)
(0.005 0.290740588345 0.430350814436)
(0.005 0.328140475307 0.430350814436)
(0.005 0.363823538274 0.430350814436)
(0.005 0.397868587233 0.430350814436)
(0.005 0.430350814436 0.430350814436)
(0.005 0.461341960473 0.430350814436)
(0.005 0.490910472713 0.430350814436)
(0.005 0.519121656485 0.430350814436)
(0.005 0.546037819304 0.430350814436)
(0.005 0.571718408489 0.430350814436)
(0.005 0.596220142462 0.430350814436)
(0.005 0.619597136007 0.430350814436)
(0.005 0.6419010198 0.430350814436)
(0.005 0.663181054431 0.430350814436)
(0.005 0.68348423921 0.430350814436)
(0.005 0.702855415963 0.430350814436)
(0.005 0.721337368074 0.430350814436)
(0.005 0.738970914977 0.430350814436)
(0.005 0.755795002311 0.430350814436)
(0.005 0.771846787928 0.430350814436)
(0.005 0.787161723973 0.430350814436)
(0.005 0.801773635175 0.430350814436)
(0.005 0.815714793553 0.430350814436)
(0.005 0.829015989696 0.430350814436)
(0.005 0.841706600768 0.430350814436)
(0.005 0.853814655382 0.430350814436)
(0.005 0.865366895517 0.430350814436)
(0.005 0.876388835572 0.430350814436)
(0.005 0.886904818719 0.430350814436)
(0.005 0.896938070668 0.430350814436)
(0.005 0.906510750967 0.430350814436)
(0.005 0.915644001936 0.430350814436)
(0.005 0.92435799537 0.430350814436)
(0.005 0.932671977087 0.430350814436)
(0.005 0.940604309433 0.430350814436)
(0.005 0.948172511841 0.430350814436)
(0.005 0.955393299522 0.430350814436)
(0.005 0.962282620386 0.430350814436)
(0.005 0.968855690256 0.430350814436)
(0.005 0.975127026485 0.430350814436)
(0.005 0.981110480012 0.430350814436)
(0.005 0.986819265955 0.430350814436)
(0.005 0.992265992799 0.430350814436)
(0.005 0.997462690241 0.430350814436)
(0.005 0.0253730975879 0.461341960473)
(0.005 0.0749545528056 0.461341960473)
(0.005 0.12225999494 0.461341960473)
(0.005 0.167393903287 0.461341960473)
(0.005 0.21045596107 0.461341960473)
(0.005 0.251541275603 0.461341960473)
(0.005 0.290740588344 0.461341960473)
(0.005 0.328140475307 0.461341960473)
(0.005 0.363823538274 0.461341960473)
(0.005 0.397868587232 0.461341960473)
(0.005 0.430350814436 0.461341960473)
(0.005 0.461341960473 0.461341960473)
(0.005 0.490910472713 0.461341960473)
(0.005 0.519121656485 0.461341960473)
(0.005 0.546037819304 0.461341960473)
(0.005 0.57171840849 0.461341960473)
(0.005 0.596220142462 0.461341960473)
(0.005 0.619597136007 0.461341960473)
(0.005 0.6419010198 0.461341960473)
(0.005 0.663181054431 0.461341960473)
(0.005 0.683484239211 0.461341960473)
(0.005 0.702855415963 0.461341960473)
(0.005 0.721337368074 0.461341960473)
(0.005 0.738970914978 0.461341960473)
(0.005 0.75579500231 0.461341960473)
(0.005 0.771846787928 0.461341960473)
(0.005 0.787161723973 0.461341960473)
(0.005 0.801773635175 0.461341960473)
(0.005 0.815714793553 0.461341960473)
(0.005 0.829015989696 0.461341960473)
(0.005 0.841706600768 0.461341960473)
(0.005 0.853814655382 0.461341960473)
(0.005 0.865366895517 0.461341960473)
(0.005 0.876388835572 0.461341960473)
(0.005 0.886904818719 0.461341960473)
(0.005 0.896938070668 0.461341960473)
(0.005 0.906510750967 0.461341960473)
(0.005 0.915644001937 0.461341960473)
(0.005 0.92435799537 0.461341960473)
(0.005 0.932671977087 0.461341960473)
(0.005 0.940604309433 0.461341960473)
(0.005 0.948172511841 0.461341960473)
(0.005 0.955393299523 0.461341960473)
(0.005 0.962282620385 0.461341960473)
(0.005 0.968855690256 0.461341960473)
(0.005 0.975127026485 0.461341960473)
(0.005 0.981110480012 0.461341960473)
(0.005 0.986819265955 0.461341960473)
(0.005 0.992265992799 0.461341960473)
(0.005 0.997462690241 0.461341960473)
(0.005 0.0253730975879 0.490910472713)
(0.005 0.0749545528056 0.490910472713)
(0.005 0.12225999494 0.490910472713)
(0.005 0.167393903287 0.490910472713)
(0.005 0.21045596107 0.490910472713)
(0.005 0.251541275603 0.490910472713)
(0.005 0.290740588345 0.490910472713)
(0.005 0.328140475307 0.490910472713)
(0.005 0.363823538274 0.490910472713)
(0.005 0.397868587233 0.490910472713)
(0.005 0.430350814436 0.490910472714)
(0.005 0.461341960473 0.490910472714)
(0.005 0.490910472713 0.490910472714)
(0.005 0.519121656485 0.490910472714)
(0.005 0.546037819304 0.490910472713)
(0.005 0.57171840849 0.490910472714)
(0.005 0.596220142462 0.490910472714)
(0.005 0.619597136007 0.490910472713)
(0.005 0.6419010198 0.490910472713)
(0.005 0.663181054431 0.490910472714)
(0.005 0.68348423921 0.490910472714)
(0.005 0.702855415963 0.490910472713)
(0.005 0.721337368074 0.490910472713)
(0.005 0.738970914977 0.490910472713)
(0.005 0.75579500231 0.490910472713)
(0.005 0.771846787928 0.490910472713)
(0.005 0.787161723973 0.490910472714)
(0.005 0.801773635175 0.490910472713)
(0.005 0.815714793553 0.490910472713)
(0.005 0.829015989697 0.490910472713)
(0.005 0.841706600767 0.490910472713)
(0.005 0.853814655382 0.490910472714)
(0.005 0.865366895517 0.490910472714)
(0.005 0.876388835572 0.490910472713)
(0.005 0.886904818719 0.490910472714)
(0.005 0.896938070668 0.490910472713)
(0.005 0.906510750967 0.490910472714)
(0.005 0.915644001936 0.490910472713)
(0.005 0.92435799537 0.490910472713)
(0.005 0.932671977087 0.490910472713)
(0.005 0.940604309433 0.490910472713)
(0.005 0.948172511841 0.490910472713)
(0.005 0.955393299523 0.490910472713)
(0.005 0.962282620386 0.490910472713)
(0.005 0.968855690256 0.490910472713)
(0.005 0.975127026485 0.490910472713)
(0.005 0.981110480012 0.490910472713)
(0.005 0.986819265955 0.490910472713)
(0.005 0.992265992798 0.490910472713)
(0.005 0.997462690241 0.490910472713)
(0.005 0.025373097588 0.519121656485)
(0.005 0.0749545528056 0.519121656485)
(0.005 0.12225999494 0.519121656485)
(0.005 0.167393903287 0.519121656485)
(0.005 0.21045596107 0.519121656485)
(0.005 0.251541275603 0.519121656485)
(0.005 0.290740588344 0.519121656485)
(0.005 0.328140475307 0.519121656485)
(0.005 0.363823538274 0.519121656485)
(0.005 0.397868587232 0.519121656485)
(0.005 0.430350814436 0.519121656485)
(0.005 0.461341960473 0.519121656485)
(0.005 0.490910472713 0.519121656485)
(0.005 0.519121656485 0.519121656485)
(0.005 0.546037819304 0.519121656485)
(0.005 0.571718408489 0.519121656485)
(0.005 0.596220142462 0.519121656485)
(0.005 0.619597136007 0.519121656485)
(0.005 0.6419010198 0.519121656485)
(0.005 0.663181054431 0.519121656485)
(0.005 0.68348423921 0.519121656485)
(0.005 0.702855415963 0.519121656485)
(0.005 0.721337368074 0.519121656485)
(0.005 0.738970914978 0.519121656485)
(0.005 0.75579500231 0.519121656485)
(0.005 0.771846787929 0.519121656485)
(0.005 0.787161723973 0.519121656485)
(0.005 0.801773635175 0.519121656485)
(0.005 0.815714793553 0.519121656485)
(0.005 0.829015989696 0.519121656485)
(0.005 0.841706600767 0.519121656485)
(0.005 0.853814655382 0.519121656485)
(0.005 0.865366895517 0.519121656485)
(0.005 0.876388835572 0.519121656485)
(0.005 0.886904818719 0.519121656485)
(0.005 0.896938070668 0.519121656485)
(0.005 0.906510750967 0.519121656485)
(0.005 0.915644001937 0.519121656485)
(0.005 0.924357995371 0.519121656485)
(0.005 0.932671977087 0.519121656485)
(0.005 0.940604309433 0.519121656485)
(0.005 0.948172511841 0.519121656485)
(0.005 0.955393299522 0.519121656485)
(0.005 0.962282620386 0.519121656485)
(0.005 0.968855690256 0.519121656485)
(0.005 0.975127026485 0.519121656485)
(0.005 0.981110480012 0.519121656485)
(0.005 0.986819265955 0.519121656485)
(0.005 0.992265992798 0.519121656485)
(0.005 0.997462690241 0.519121656485)
(0.005 0.0253730975879 0.546037819304)
(0.005 0.0749545528056 0.546037819304)
(0.005 0.12225999494 0.546037819304)
(0.005 0.167393903287 0.546037819304)
(0.005 0.21045596107 0.546037819304)
(0.005 0.251541275604 0.546037819304)
(0.005 0.290740588344 0.546037819304)
(0.005 0.328140475307 0.546037819304)
(0.005 0.363823538274 0.546037819304)
(0.005 0.397868587232 0.546037819304)
(0.005 0.430350814436 0.546037819304)
(0.005 0.461341960473 0.546037819304)
(0.005 0.490910472714 0.546037819304)
(0.005 0.519121656485 0.546037819304)
(0.005 0.546037819304 0.546037819304)
(0.005 0.571718408489 0.546037819304)
(0.005 0.596220142462 0.546037819304)
(0.005 0.619597136008 0.546037819304)
(0.005 0.6419010198 0.546037819304)
(0.005 0.663181054431 0.546037819304)
(0.005 0.68348423921 0.546037819304)
(0.005 0.702855415963 0.546037819304)
(0.005 0.721337368074 0.546037819304)
(0.005 0.738970914978 0.546037819304)
(0.005 0.755795002311 0.546037819304)
(0.005 0.771846787928 0.546037819304)
(0.005 0.787161723974 0.546037819304)
(0.005 0.801773635175 0.546037819304)
(0.005 0.815714793553 0.546037819304)
(0.005 0.829015989697 0.546037819304)
(0.005 0.841706600768 0.546037819304)
(0.005 0.853814655382 0.546037819304)
(0.005 0.865366895517 0.546037819304)
(0.005 0.876388835572 0.546037819304)
(0.005 0.886904818719 0.546037819304)
(0.005 0.896938070669 0.546037819304)
(0.005 0.906510750967 0.546037819304)
(0.005 0.915644001937 0.546037819304)
(0.005 0.924357995371 0.546037819304)
(0.005 0.932671977087 0.546037819304)
(0.005 0.940604309433 0.546037819304)
(0.005 0.948172511841 0.546037819304)
(0.005 0.955393299522 0.546037819304)
(0.005 0.962282620385 0.546037819304)
(0.005 0.968855690256 0.546037819304)
(0.005 0.975127026485 0.546037819304)
(0.005 0.981110480012 0.546037819304)
(0.005 0.986819265955 0.546037819304)
(0.005 0.992265992799 0.546037819304)
(0.005 0.997462690241 0.546037819304)
(0.005 0.025373097588 0.57171840849)
(0.005 0.0749545528056 0.57171840849)
(0.005 0.12225999494 0.571718408489)
(0.005 0.167393903287 0.57171840849)
(0.005 0.21045596107 0.57171840849)
(0.005 0.251541275604 0.57171840849)
(0.005 0.290740588345 0.571718408489)
(0.005 0.328140475307 0.571718408489)
(0.005 0.363823538274 0.571718408489)
(0.005 0.397868587233 0.571718408489)
(0.005 0.430350814436 0.571718408489)
(0.005 0.461341960473 0.57171840849)
(0.005 0.490910472714 0.571718408489)
(0.005 0.519121656485 0.571718408489)
(0.005 0.546037819304 0.571718408489)
(0.005 0.571718408489 0.571718408489)
(0.005 0.596220142462 0.571718408489)
(0.005 0.619597136007 0.571718408489)