/*--------------------------------*- C++ -*----------------------------------*\
| =========                 |                                                 |
| \\      /  F ield         | OpenFOAM: The Open Source CFD Toolbox           |
|  \\    /   O peration     | Version:  3.0.1                                 |
|   \\  /    A nd           | Web:      www.OpenFOAM.org                      |
|    \\/     M anipulation  |                                                 |
\*---------------------------------------------------------------------------*/
FoamFile
{
    version     2.0;
    format      ascii;
    class       volTensorField;
    location    "50000";
    object      grad(Usqr);
}
// * * * * * * * * * * * * * * * * * * * * * * * * * * * * * * * * * * * * * //

dimensions      [0 0 -1 0 0 0 0];

internalField   nonuniform List<tensor> 
2500
(
(0 0 0 -0.0106759189053 1.28602803234e-23 -6.50130896661e-26 -0.0106755914733 -6.36485459292e-26 1.28840859935e-23)
(0 0 0 -0.0313396596611 2.94089554967e-23 -1.83784565373e-25 -0.0106778727551 -5.46657790057e-25 1.2263846153e-23)
(0 0 0 -0.0505587502988 4.53423478186e-23 -2.76124657826e-25 -0.0106841325475 -1.42502637089e-24 1.118894123e-23)
(0 0 0 -0.0682999029989 5.70594289086e-23 -3.43436638561e-25 -0.0106957738666 -2.56673920631e-24 9.81680058477e-24)
(0 0 0 -0.0847026901862 6.42557278655e-23 -3.84337031584e-25 -0.0107122840926 -3.85935284712e-24 8.2765223674e-24)
(1.06506009765e-14 2.81919060473e-37 1.10124632997e-39 -0.100009131762 6.70738791493e-23 -4.00259539662e-25 -0.0107309307048 -5.18976301362e-24 6.70438812598e-24)
(5.58151738506e-15 0 0 -0.114502438474 6.59440616133e-23 -3.94080150191e-25 -0.0107473120704 -6.48353196977e-24 5.18220244101e-24)
(0 3.09699686636e-37 6.0488220046e-40 -0.128468089215 6.13584504189e-23 -3.68802649498e-25 -0.0107561706456 -7.65440706376e-24 3.79815707584e-24)
(0 0 0 -0.142174435626 5.39929751364e-23 -3.28081643624e-25 -0.0107521286323 -8.66266445717e-24 2.59139513878e-24)
(0 0 0 -0.155865715288 4.44755072767e-23 -2.72090883438e-25 -0.0107302366473 -9.54239354391e-24 1.60307394182e-24)
(0 0 0 -0.169761560452 3.34138436e-23 -2.07150436609e-25 -0.0106863388509 -1.01953753348e-23 8.48691766319e-25)
(0 0 0 -0.184059389312 2.13786174837e-23 -1.34949587022e-25 -0.0106172894188 -1.06576592297e-23 3.347091996e-25)
(7.39948103469e-15 3.9172526431e-37 1.19545063571e-41 -0.198937841157 8.94031316026e-24 -5.76881007639e-26 -0.0105210547129 -1.09147600132e-23 5.8025463827e-26)
(0 0 0 -0.214560467545 -3.38197255764e-24 2.21582002504e-26 -0.0103967269506 -1.09731268555e-23 8.16857097875e-27)
(0 0 0 -0.231079425391 -1.53656460824e-23 1.03240904153e-25 -0.0102444678307 -1.08696744178e-23 1.70109236672e-25)
(0 0 0 -0.248639156791 -2.66784264124e-23 1.83599970045e-25 -0.0100653980484 -1.06182356953e-23 5.24868786475e-25)
(0 0 0 -0.267380129546 -3.70565549758e-23 2.61905944592e-25 -0.00986144661818 -1.02461985058e-23 1.0508469514e-24)
(0 0 0 -0.287442735242 -4.63656577626e-23 3.36901184804e-25 -0.00963517463276 -9.76992694668e-24 1.72548036054e-24)
(0 0 0 -0.3089714393 -5.44790809402e-23 4.07552116696e-25 -0.00938958708117 -9.21594065882e-24 2.52591677181e-24)
(0 0 0 -0.332119275859 -6.13209124689e-23 4.72770873219e-25 -0.00912794621474 -8.6063430857e-24 3.42895167737e-24)
(0 0 0 -0.357052785254 -6.68857240402e-23 5.31825436337e-25 -0.00885359725368 -7.95976260832e-24 4.41239874417e-24)
(0 0 0 -0.38395751092 -7.11896194919e-23 5.84126333306e-25 -0.00856981520654 -7.28908957216e-24 5.45350221971e-24)
(0 0 0 -0.413044207932 -7.42520721288e-23 6.28478755155e-25 -0.00827967819116 -6.61804210722e-24 6.5328145835e-24)
(0 0 0 -0.444555966558 -7.61391548115e-23 6.6392544747e-25 -0.00798596996109 -5.9595301111e-24 7.63131011367e-24)
(0 0 0 -0.478776525362 -7.69077832464e-23 6.89972330416e-25 -0.00769111113976 -5.31904484314e-24 8.72983290771e-24)
(0 0 0 -0.516040138797 -7.66583178225e-23 7.05878568738e-25 -0.00739711718302 -4.70384534673e-24 9.81090073359e-24)
(0 0 0 -0.55674347899 -7.54966976266e-23 7.10520366984e-25 -0.00710557873571 -4.12245498269e-24 1.08590885697e-23)
(0 0 0 -0.601360194175 -7.34961147853e-23 7.03240382906e-25 -0.00681766015737 -3.57623494286e-24 1.18570542529e-23)
(0 0 0 -0.650458917679 -7.07554325523e-23 6.8286825187e-25 -0.0065341107011 -3.06925187632e-24 1.27909476553e-23)
(0 0 0 -0.704725716814 -6.7387592451e-23 6.47382368088e-25 -0.00625528344986 -2.60787747443e-24 1.36464425306e-23)
(0 0 0 -0.76499216383 -6.34879948062e-23 5.94782361189e-25 -0.00598115710936 -2.19390114085e-24 1.4409412134e-23)
(0 0 0 -0.832270325419 -5.91657586858e-23 5.23181012621e-25 -0.00571135578051 -1.82517268777e-24 1.50659393518e-23)
(0 0 0 -0.907795805955 -5.45187194245e-23 4.30528463345e-25 -0.00544516221385 -1.4984615881e-24 1.56016807695e-23)
(0 0 0 -0.993079058765 -4.96320549067e-23 3.13563836278e-25 -0.0051815190697 -1.21328196109e-24 1.60025253441e-23)
(0 0 0 -1.08996235503 -4.46006032307e-23 1.68823270417e-25 -0.00491901203512 -9.6662977552e-25 1.62532436924e-23)
(0 0 0 -1.20067233472 -3.95007549296e-23 -7.96078701737e-27 -0.00465582512715 -7.55183085219e-25 1.63380499451e-23)
(0 0 0 -1.32783945626 -3.44167264021e-23 -2.23351786198e-25 -0.00438965449018 -5.78907008335e-25 1.62393908361e-23)
(0 0 0 -1.47441040907 -2.94350768136e-23 -4.83370300955e-25 -0.00411755721997 -4.3236783185e-25 1.593744659e-23)
(0 0 0 -1.64327130523 -2.46282543183e-23 -7.96481685755e-25 -0.00383569826473 -3.13630573898e-25 1.54106361673e-23)
(0 0 0 -1.8361484349 -2.00718978703e-23 -1.17131417054e-24 -0.00353894053792 -2.20252926836e-25 1.46340307556e-23)
(0 0 0 -2.05082168773 -1.58373327199e-23 -1.6124942048e-24 -0.00322022982435 -1.48122885165e-25 1.35821192461e-23)
(0 0 0 -2.27485952986 -1.20000450912e-23 -2.11335503172e-24 -0.00286989349859 -9.46429412639e-26 1.22329523764e-23)
(0 0 0 -2.47433767259 -8.63599846166e-24 -2.63585956868e-24 -0.00247583435333 -5.66745260376e-26 1.05808572371e-23)
(0 0 0 -2.58351145368 -5.81433052718e-24 -3.08572571409e-24 -0.00202834377089 -3.12608141825e-26 8.66304571213e-24)
(0 0 0 -2.52091561845 -3.58973421331e-24 -3.31730331792e-24 -0.00153603299457 -1.54242072797e-26 6.59474098104e-24)
(0 0 0 -2.24895823185 -1.97820638912e-24 -3.21619904685e-24 -0.00104471519553 -6.55042189286e-27 4.57442992754e-24)
(0 0 0 -1.81486081429 -9.34931085251e-25 -2.78992524761e-24 -0.000620816496232 -2.24205044964e-27 2.81185179301e-24)
(0 0 0 -1.30560495812 -3.50898115103e-25 -2.13753257187e-24 -0.000305849463188 -5.35052613195e-28 1.44242394275e-24)
(0 0 0 -0.780916958531 -8.81812380251e-26 -1.34943386249e-24 -0.0001059265613 -5.94394622937e-29 5.20689935819e-25)
(0 0 0 -0.324506133897 -9.97176172274e-27 -5.86865108997e-25 -1.14664001089e-05 -2.13158302745e-31 5.9130310373e-26)
(0 0 0 -0.010678200187 1.22528957436e-23 -5.5821114575e-25 -0.0313388030244 -1.79916362308e-25 2.94253758823e-23)
(0 0 0 -0.0313485019134 2.80053166064e-23 -1.5715137859e-24 -0.0313476425867 -1.55188094066e-24 2.8016718841e-23)
(0 0 0 -0.0505780997375 4.31674996503e-23 -2.37052563223e-24 -0.0313698413173 -4.02877234339e-24 2.55674156741e-23)
(0 0 0 -0.0683317012651 5.43169009875e-23 -2.95315086124e-24 -0.0314091579145 -7.24834347872e-24 2.24196236355e-23)
(0 0 0 -0.0847442025788 6.11618892684e-23 -3.3040150626e-24 -0.0314639709323 -1.08984870913e-23 1.89039895972e-23)
(0 1.47741535025e-37 9.23384593906e-39 -0.100052354412 6.38319195377e-23 -3.44069872115e-24 -0.0315263517071 -1.46616647994e-23 1.52968999003e-23)
(0 0 0 -0.114534902444 6.27553887799e-23 -3.38419908712e-24 -0.0315835648378 -1.83268711456e-23 1.18236034913e-23)
(-6.13152648209e-15 0 -5.07187983134e-39 -0.128474216769 5.84052388938e-23 -3.15976200585e-24 -0.0316203423046 -2.16990892558e-23 8.6514623966e-24)
(0 0 0 -0.142136936908 5.1310813915e-23 -2.80310913275e-24 -0.0316209667387 -2.46212858615e-23 5.90393533435e-24)
(0 3.56586794377e-37 0 -0.155766826544 4.21975920227e-23 -2.33124189625e-24 -0.0315708443249 -2.70592972856e-23 3.6493795245e-24)
(0 0 0 -0.169584084731 3.16775315418e-23 -1.7761607034e-24 -0.03145756745 -2.89185053754e-23 1.92910950813e-24)
(7.39948103457e-15 3.91725264304e-37 3.82544203422e-40 -0.183787550452 2.02079135016e-23 -1.1574971018e-24 -0.031271561926 -3.02118189052e-23 7.5891092961e-25)
(7.75549325837e-15 0 1.00237401002e-40 -0.198557964269 8.40661775293e-24 -4.9653646415e-25 -0.0310064129225 -3.0907204429e-23 1.29984724851e-25)
(0 0 0 -0.214061488229 -3.29398627444e-24 1.89540979557e-25 -0.0306589399439 -3.10938160773e-23 1.94956332805e-26)
(0 0 0 -0.230453223816 -1.46896272831e-23 8.84737814571e-25 -0.0302290720677 -3.08230034537e-23 3.91828417699e-25)
(0 0 0 -0.247880713166 -2.54401236366e-23 1.57412552572e-24 -0.0297195641608 -3.01199443931e-23 1.20312668119e-24)
(0 0 0 -0.266487503775 -3.52935557844e-23 2.24534502063e-24 -0.0291355923452 -2.90720117702e-23 2.40450754217e-24)
(0 0 0 -0.28641688321 -4.41239996072e-23 2.88879575848e-24 -0.0284842669953 -2.77277019242e-23 3.94446462827e-24)
(0 0 0 -0.307815888426 -5.18272384018e-23 3.494551509e-24 -0.027774101782 -2.61614705142e-23 5.76994411533e-24)
(0 0 0 -0.330839690519 -5.83215956441e-23 4.05458921442e-24 -0.0270144763858 -2.44338988315e-23 7.82891375347e-24)
(0 0 0 -0.355656456776 -6.3590120408e-23 4.55897194789e-24 -0.0262151255017 -2.26135812009e-23 1.00706703213e-23)
(0 0 0 -0.382452807819 -6.76727835027e-23 5.00290868614e-24 -0.0253856808595 -2.07340871972e-23 1.24457998871e-23)
(0 0 0 -0.411440018973 -7.06002724982e-23 5.38455334953e-24 -0.0245352847191 -1.88182802981e-23 1.49077167417e-23)
(6.50233326841e-15 1.72115328512e-37 1.0757208032e-38 -0.442861162759 -7.24000281942e-23 5.69267055094e-24 -0.0236722845304 -1.69291607798e-23 1.74121075862e-23)
(0 0 0 -0.47699945982 -7.3119985022e-23 5.91835342245e-24 -0.022804010921 -1.51021090169e-23 1.99184490154e-23)
(0 0 0 -0.514188194101 -7.28758361781e-23 6.05923749839e-24 -0.0219366338036 -1.3342688666e-23 2.23857833141e-23)
(0 0 0 -0.554822664056 -7.17610252759e-23 6.10187823223e-24 -0.0210750871651 -1.16856804229e-23 2.47772481387e-23)
(0 0 0 -0.599374784529 -6.98395937622e-23 6.03673390957e-24 -0.0202230492168 -1.01425059412e-23 2.70571136046e-23)
(-4.11225507825e-15 -1.08850485587e-37 -1.36063106984e-38 -0.648411124911 -6.72325409373e-23 5.85878930877e-24 -0.0193829636929 -8.70850912624e-24 2.91909934273e-23)
(0 -1.14087623597e-37 -2.85219058992e-38 -0.702615366956 -6.40503954571e-23 5.5521491503e-24 -0.0185560869468 -7.39899996422e-24 3.1144829322e-23)
(0 0 0 -0.762816355157 -6.03607024391e-23 5.10182044678e-24 -0.0177425463854 -6.21680459358e-24 3.28873282699e-23)
(0 0 0 -0.830023026605 -5.62536244274e-23 4.48862550053e-24 -0.0169413956826 -5.16350047991e-24 3.4386140612e-23)
(0 0 0 -0.905467339734 -5.1833635512e-23 3.69177401552e-24 -0.0161506524041 -4.23430258281e-24 3.56097555404e-23)
(0 0 0 -0.990655392245 -4.71862614629e-23 2.68610599893e-24 -0.0153673020591 -3.42305819039e-24 3.65252573674e-23)
(0 0 0 -1.08742407518 -4.23927622028e-23 1.44011818043e-24 -0.0145872488301 -2.72321235614e-24 3.70983728764e-23)
(0 0 0 -1.19799311639 -3.75428285182e-23 -8.43188138758e-26 -0.0138051852968 -2.12631476174e-24 3.72920923363e-23)
(0 0 0 -1.32498370441 -3.27081952971e-23 -1.93706074089e-24 -0.0130143388958 -1.6259814338e-24 3.70659796815e-23)
(0 -1.03844585584e-38 -2.07689171169e-38 -1.47132954161 -2.79639640949e-23 -4.17545662315e-24 -0.0122060262182 -1.21238669888e-24 3.6376152945e-23)
(0 0 0 -1.63989781423 -2.33957861147e-23 -6.86894329518e-24 -0.0113689050666 -8.7772697634e-25 3.51703100203e-23)
(0 0 0 -1.83238656574 -1.90641761862e-23 -1.00888641001e-23 -0.0104877622605 -6.14196686409e-25 3.33935328175e-23)
(0 0 0 -2.04653441655 -1.50361177644e-23 -1.38753315279e-23 -0.00954169543382 -4.11789587863e-25 3.09870553721e-23)
(0 0 0 -2.26985857397 -1.13889730218e-23 -1.81665271609e-23 -0.00850204864213 -2.62109268391e-25 2.79016295099e-23)
(1.98488038507e-15 1.64185457277e-39 1.31348365821e-38 -2.46841134441 -8.19238993383e-24 -2.26314452825e-23 -0.00733303019107 -1.55961150807e-25 2.41252934698e-23)
(0 0 0 -2.57657736877 -5.51197425672e-24 -2.64596087493e-23 -0.00600607319987 -8.51750964558e-26 1.97446344033e-23)
(0 0 0 -2.51331767941 -3.40012025534e-24 -2.84091133136e-23 -0.00454708544533 -4.17293572996e-26 1.50247349503e-23)
(0 0 0 -2.24156124617 -1.87234884981e-24 -2.75095818545e-23 -0.00309201697318 -1.75741076572e-26 1.04187113372e-23)
(0 0 0 -1.80861268385 -8.84404606301e-25 -2.38372579041e-23 -0.00183723628532 -5.95517915387e-27 6.40300508987e-24)
(0 0 0 -1.30104953908 -3.31743146897e-25 -1.82447543486e-23 -0.000905106475405 -1.39695279843e-27 3.28418383912e-24)
(0 0 0 -0.778195823873 -8.32866646909e-26 -1.15067586343e-23 -0.000313471803521 -1.50777321644e-28 1.18539686276e-24)
(0 0 0 -0.323380829367 -9.40252091881e-27 -4.9992568813e-24 -3.39331950384e-05 -4.18740498763e-31 1.34593317179e-25)
(0 0 0 -0.0106844574128 1.11879785015e-23 -1.43164642235e-24 -0.0505576574193 -2.74605212353e-25 4.53315620402e-23)
(0 0 0 -0.0313706980774 2.55586455214e-23 -4.04078409197e-24 -0.0505769954433 -2.36290410444e-24 4.31680219801e-23)
(0 0 0 -0.0506230454982 3.93911462534e-23 -6.12081248301e-24 -0.0506219322637 -6.10888030679e-24 3.9399127549e-23)
(0 0 0 -0.0684027852802 4.95492267449e-23 -7.62454513727e-24 -0.0506978246823 -1.09958063802e-23 3.45366978171e-23)
(0 0 0 -0.0848366350851 5.57709682459e-23 -8.53361857412e-24 -0.05080200696 -1.652521979e-23 2.9111976938e-23)
(0 0 0 -0.100151985199 5.81690089927e-23 -8.8845644791e-24 -0.0509221796245 -2.2246336079e-23 2.35395051418e-23)
(6.13152648219e-15 1.62300154606e-37 2.02875193257e-38 -0.114619491273 5.71091753918e-23 -8.73518789297e-24 -0.0510385048996 -2.78063893899e-23 1.81834615696e-23)
(0 0 0 -0.128515716487 5.30835277288e-23 -8.15164737518e-24 -0.0511269641979 -3.29516862489e-23 1.32889761958e-23)
(0 0 0 -0.142103897216 4.66082566614e-23 -7.21681959483e-24 -0.0511625104951 -3.74452436916e-23 9.05370198219e-24)
(0 0 0 -0.155626560375 3.82756799021e-23 -6.00462298869e-24 -0.0511215007433 -4.1125836995e-23 5.58246077726e-24)
(0 0 0 -0.169304520736 2.8652347142e-23 -4.57069986017e-24 -0.0509833842091 -4.39654501428e-23 2.94167495636e-24)
(0 0 0 -0.18333878756 1.82382212722e-23 -2.97429435169e-24 -0.0507317766658 -4.59324601528e-23 1.14911328311e-24)
(0 0 0 -0.197913548009 7.49037897477e-24 -1.26929804642e-24 -0.0503550562773 -4.70212935449e-23 1.92262351575e-25)
(0 0 0 -0.213199410642 -3.21489408423e-24 4.98948903687e-25 -0.049846582362 -4.73463612423e-23 3.27315482301e-26)
(0 0 0 -0.229356633332 -1.35635737158e-23 2.28796213951e-24 -0.0492046086365 -4.69593529168e-23 6.14025331517e-25)
(0 0 0 -0.246538318525 -2.33032575961e-23 4.06140285052e-24 -0.048431945305 -4.59167120571e-23 1.86797673461e-24)
(0 0 0 -0.264893665692 -3.2232052715e-23 5.78869928776e-24 -0.0475354200755 -4.43368236275e-23 3.71881967297e-24)
(0 0 0 -0.284571403218 -4.02205241253e-23 7.44203824592e-24 -0.0465251892527 -4.23192843801e-23 6.08808414307e-24)
(0 0 0 -0.305723524164 -4.71950636979e-23 8.9980939555e-24 -0.0454139534751 -3.99596207623e-23 8.89204860167e-24)
(0 0 0 -0.32850944348 -5.31015921258e-23 1.04374595751e-23 -0.0442161331978 -3.73427039197e-23 1.20538847841e-23)
(5.91906212676e-15 1.56676269944e-37 1.9584533743e-38 -0.353100690566 -5.79033644185e-23 1.17400669586e-23 -0.0429470564876 -3.45612555449e-23 1.54929356166e-23)
(0 0 0 -0.37968626071 -6.15347570941e-23 1.28885551097e-23 -0.0416222047918 -3.16891842943e-23 1.91414042644e-23)
(-6.50233326831e-15 -1.72115328509e-37 0 -0.40847877175 -6.41129054488e-23 1.38667170534e-23 -0.04025655198 -2.87892037338e-23 2.29236013261e-23)
(0 0 0 -0.439721615863 -6.57623320402e-23 1.46605387613e-23 -0.0388640193973 -2.59113365491e-23 2.67665086644e-23)
(0 0 0 -0.473697360248 -6.6411556476e-23 1.52485927965e-23 -0.0374570576365 -2.31125334945e-23 3.06162659121e-23)
(-3.74337830515e-15 -9.9086398703e-38 0 -0.51073773813 -6.61813427628e-23 1.56098445158e-23 -0.0360463535552 -2.04332068784e-23 3.44070299963e-23)
(3.92348396765e-15 1.03853755894e-37 0 -0.551235685396 -6.52110122001e-23 1.57258365406e-23 -0.034640652216 -1.78948253576e-23 3.80790118593e-23)
(0 0 0 -0.595660021718 -6.34664328506e-23 1.55697669849e-23 -0.0332466760176 -1.55232208138e-23 4.15812831633e-23)
(-4.31010855851e-15 0 -5.70438118015e-38 -0.644573547374 -6.10706031319e-23 1.51099727965e-23 -0.0318691196663 -1.33370751742e-23 4.48618227108e-23)
(-4.51748138955e-15 -5.97883683681e-38 -5.97883683681e-38 -0.698655522658 -5.81704124274e-23 1.43166403677e-23 -0.0305106970309 -1.13394609445e-23 4.78664852393e-23)
(-4.73483157763e-15 -1.25329948311e-37 -6.26649741555e-38 -0.758729688005 -5.48224979925e-23 1.31527737308e-23 -0.0291722154553 -9.53244289986e-24 5.05475423175e-23)
(0 0 0 -0.825799089999 -5.11118961773e-23 1.15715818512e-23 -0.0278526531321 -7.91746010535e-24 5.28541664347e-23)
(0 0 0 -0.901088804077 -4.71086678606e-23 9.52010724451e-24 -0.0265492142337 -6.48875019122e-24 5.47388483296e-23)
(0 0 0 -0.986096696396 -4.28897649587e-23 6.92986943962e-24 -0.0252573342489 -5.24094287331e-24 5.61498824723e-23)
(2.85697995135e-15 1.89059074097e-38 0 -1.08264949452 -3.85367515857e-23 3.71866435193e-24 -0.0239706014248 -4.16482936233e-24 5.7035179565e-23)
(0 0 0 -1.19295388521 -3.41240809683e-23 -2.1548852779e-25 -0.0226805480648 -3.24959929728e-24 5.73367178633e-23)
(0 0 0 -1.31961359305 -2.97235897469e-23 -4.99234282187e-24 -0.0213762403598 -2.48011624964e-24 5.69922723892e-23)
(0 -1.08840874062e-38 -4.35363496247e-38 -1.46553788923 -2.54085836118e-23 -1.07719237485e-23 -0.0200435538031 -1.84749492484e-24 5.59317823277e-23)
(0 0 0 -1.63355840317 -2.1255467392e-23 -1.77309892591e-23 -0.0186639521079 -1.33763223934e-24 5.40762644095e-23)
(0 0 0 -1.82532017738 -1.73191071498e-23 -2.60416193042e-23 -0.0172125055719 -9.34301404425e-25 5.13396366548e-23)
(0 0 0 -2.03848453015 -1.36578890276e-23 -3.58123534791e-23 -0.0156549216324 -6.25436827293e-25 4.76323601972e-23)
(0 0 0 -2.26047302339 -1.03410028789e-23 -4.68757386179e-23 -0.013944201082 -3.97145775766e-25 4.28785938178e-23)
(-1.04018960066e-15 0 0 -2.45729551875 -7.43417656798e-24 -5.83733480924e-23 -0.0120217902099 -2.35942963787e-25 3.70628101779e-23)
(0 -9.01822398562e-40 0 -2.56358148712 -5.00172662175e-24 -6.82068777074e-23 -0.00984145505641 -1.28652996592e-25 3.03202003824e-23)
(0 0 0 -2.49909095665 -3.08615136644e-24 -7.31813601754e-23 -0.00744694137909 -6.27819707234e-26 2.30637235228e-23)
(0 0 0 -2.22772257022 -1.69928135018e-24 -7.08235114547e-23 -0.0050619352718 -2.63640531754e-26 1.59900807798e-23)
(0 0 0 -1.7969296202 -8.02980527229e-25 -6.13483270331e-23 -0.00300717565901 -8.92508588708e-27 9.82714248838e-24)
(0 0 0 -1.29253340306 -3.01424226394e-25 -4.69490174081e-23 -0.00148140767819 -2.09189308823e-27 5.04128386369e-24)
(0 0 0 -0.773108996865 -7.57646677901e-26 -2.96093501481e-23 -0.000513069913306 -2.24905056675e-28 1.82006881512e-24)
(0 0 -2.98889050877e-40 -0.321277194134 -8.56911259891e-27 -1.28642086455e-23 -5.55406048755e-05 -6.15140644121e-31 2.06734990933e-25)
(0 0 0 -0.01069609079 9.81456617358e-24 -2.56777235082e-24 -0.0682988897359 -3.43341430623e-25 5.70612133392e-23)
(0 0 0 -0.0314099982028 2.24180097099e-23 -7.2502161654e-24 -0.0683306622633 -2.9522981067e-24 5.43175216982e-23)
(0 0 0 -0.0506989293869 3.45332029239e-23 -1.10009956231e-23 -0.0684017147617 -7.62038636158e-24 4.9563015633e-23)
(0 0 0 -0.0685200515752 4.341566628e-23 -1.37157399246e-23 -0.0685189654773 -1.37108599292e-23 4.34216794702e-23)
(0 0 0 -0.0849896550787 4.88340891661e-23 -1.5351388254e-23 -0.0686795141556 -2.06054010793e-23 3.65656968544e-23)
(0 0 0 -0.100322878918 5.08852649029e-23 -1.5979110244e-23 -0.0688682163431 -2.77459533142e-23 2.95394880408e-23)
(0 0 0 -0.114779473871 4.98850758584e-23 -1.57033865357e-23 -0.0690599757627 -3.46834904356e-23 2.2779929221e-23)
(0 0 0 -0.128627834744 4.62679423208e-23 -1.46525497385e-23 -0.0692237830692 -4.10827097311e-23 1.66234235222e-23)
(0 0 0 -0.142126014062 4.05318413163e-23 -1.2964591011e-23 -0.0693266445138 -4.66795390689e-23 1.12912373806e-23)
(0 0 0 -0.155514108296 3.3192524466e-23 -1.07710906234e-23 -0.069336701536 -5.129808542e-23 6.93541567366e-24)
(0 0 0 -0.169012910914 2.4728380185e-23 -8.18439715565e-24 -0.0692254680152 -5.48608000965e-23 3.63303688876e-24)
(0 0 0 -0.182825489173 1.55908288317e-23 -5.31204523159e-24 -0.0689693256354 -5.73400588205e-23 1.40200607561e-24)
(0 0 0 -0.197139863451 6.18248100517e-24 -2.24779091706e-24 -0.0685504372779 -5.87642524651e-23 2.24686028528e-25)
(0 0 0 -0.212131945854 -3.16146966814e-24 9.23250017919e-25 -0.0679571995893 -5.92019935108e-23 4.76233320422e-26)
(0 0 0 -0.227968438651 -1.21565356347e-23 4.12771763457e-24 -0.067184315787 -5.87382474091e-23 7.963025217e-25)
(0 0 0 -0.244809664963 -2.05993143991e-23 7.30151791527e-24 -0.0662325466858 -5.74775057961e-23 2.38621404847e-24)
(0 0 0 -0.262812426839 -2.83474954704e-23 1.03917167366e-23 -0.0651081888838 -5.5535069572e-23 4.7175150335e-24)
(5.38811146939e-15 0 0 -0.282133031759 -3.52745631126e-23 1.33462171685e-23 -0.063822331195 -5.30516945237e-23 7.69227135456e-24)
(0 0 0 -0.302930636245 -4.12892576584e-23 1.61273617131e-23 -0.0623899465551 -5.01320652812e-23 1.120671137e-23)
(0 0 0 -0.325371050595 -4.63484718148e-23 1.86986890003e-23 -0.0608288824064 -4.68864022679e-23 1.51667657483e-23)
(0 0 0 -0.349631141875 -5.04541350195e-23 2.1034370729e-23 -0.0591588147231 -4.34094900573e-23 1.94657618135e-23)
(0 0 0 -0.375903973509 -5.36173262118e-23 2.31019776994e-23 -0.0574002287612 -3.9804538419e-23 2.40211603997e-23)
(0 0 0 -0.404404833776 -5.58545275275e-23 2.48463545675e-23 -0.0555734800904 -3.62046934037e-23 2.8737322354e-23)
(0 0 0 -0.435378339075 -5.72209517534e-23 2.62681693452e-23 -0.0536979785026 -3.26141406612e-23 3.35363142097e-23)
(0 0 0 -0.469106854534 -5.77700539082e-23 2.7333132991e-23 -0.0517915208492 -2.9100363257e-23 3.83367823055e-23)
(0 0 0 -0.50592055446 -5.75541403534e-23 2.79779257586e-23 -0.049869784522 -2.57536470366e-23 4.30626283161e-23)
(0 0 0 -0.54620955653 -5.66540929548e-23 2.81831501455e-23 -0.0479459777384 -2.25768803898e-23 4.76491093332e-23)
(0 0 0 -0.590438705458 -5.51439676473e-23 2.7912919045e-23 -0.0460306319067 -1.95918774118e-23 5.20212979755e-23)
(0 5.97883683714e-38 0 -0.63916575328 -5.30937783307e-23 2.70995542916e-23 -0.0441315116575 -1.68385527022e-23 5.6118011454e-23)
(0 0 0 -0.693063879564 -5.05755054522e-23 2.56850919517e-23 -0.0422536132253 -1.43237121928e-23 5.98732202187e-23)
(0 0 0 -0.752949683054 -4.76598499901e-23 2.3604679895e-23 -0.0403992179435 -1.20476597503e-23 6.32304787009e-23)
(0 0 0 -0.81981787909 -4.4415712296e-23 2.07752617764e-23 -0.0385679660813 -1.00107792101e-23 6.61219410301e-23)
(0 0 0 -0.894883748844 -4.09251893197e-23 1.71007248046e-23 -0.0367569140778 -8.20684602884e-24 6.84870988632e-23)
(0 0 0 -0.979633415983 -3.72607594111e-23 1.24586158249e-23 -0.034960534275 -6.62954426657e-24 7.02604907603e-23)
(0 0 0 -1.07587910946 -3.34800446024e-23 6.70080041141e-24 -0.0331706076226 -5.26775101134e-24 7.13752405946e-23)
(0 0 0 -1.18580893817 -2.96407819775e-23 -3.57904744582e-25 -0.0313759420713 -4.10907631413e-24 7.17586135673e-23)
(-3.28951357166e-15 -1.08840874048e-38 -8.70726992386e-38 -1.31200180052 -2.58169454092e-23 -8.94196429557e-24 -0.0295618164875 -3.13754224735e-24 7.13313894021e-23)
(0 0 0 -1.45733231155 -2.20796064483e-23 -1.93295102849e-23 -0.0277089916956 -2.33802703659e-24 7.00026036228e-23)
(0 0 0 -1.62458176238 -1.84671627364e-23 -3.18344322937e-23 -0.0257920363592 -1.69231059468e-24 6.76766543964e-23)
(0 0 0 -1.81532031044 -1.5037119361e-23 -4.67713379837e-23 -0.0237766046575 -1.18224439316e-24 6.4241862149e-23)
(0 0 0 -2.02710035344 -1.18540109278e-23 -6.43259184699e-23 -0.0216153638216 -7.91426824935e-25 5.958697073e-23)
(0 0 0 -2.2472095128 -8.97181806689e-24 -8.41859394896e-23 -0.0192434639265 -5.02376197071e-25 5.36179885828e-23)
(0 0 0 -2.44160095052 -6.44709074988e-24 -1.04796780182e-22 -0.016580404276 -2.98756769052e-25 4.63191420177e-23)
(0 0 0 -2.54525490028 -4.33336173004e-24 -1.22375274036e-22 -0.0135636139455 -1.63354471792e-25 3.78677770475e-23)
(0 0 0 -2.47905816071 -2.67131048973e-24 -1.31198869905e-22 -0.0102559330898 -7.97476605143e-26 2.87878127353e-23)
(0 0 0 -2.20826214263 -1.47076550965e-24 -1.26893664017e-22 -0.00696742574998 -3.35711861065e-26 1.99515866019e-23)
(3.28922310705e-16 6.80195396128e-41 1.74130021409e-38 -1.78051429233 -6.95099131168e-25 -1.09884174226e-22 -0.0041380906652 -1.13895427772e-26 1.2261163361e-23)
(0 0 0 -1.28057176142 -2.60857192364e-25 -8.40919806576e-23 -0.00203839897307 -2.67468934154e-27 6.29079568643e-24)
(0 0 0 -0.765964560515 -6.55227261815e-26 -5.30421029327e-23 -0.000705985341781 -2.8837154436e-28 2.27163943439e-24)
(0 0 0 -0.318322607327 -7.40533809547e-27 -2.30497032702e-23 -7.64259562701e-05 -8.24784948764e-31 2.5808778366e-25)
(0 0 0 -0.0107125862389 8.27632078329e-24 -3.86672713816e-24 -0.0847020055583 -3.83546552734e-25 6.4259129334e-23)
(0 0 0 -0.0314647758922 1.88992153506e-23 -1.08990571471e-23 -0.084743474729 -3.3038834959e-24 6.11840593658e-23)
(0 0 0 -0.0508030762491 2.91078991661e-23 -1.65322742254e-23 -0.0848358464185 -8.53059198699e-24 5.57831163906e-23)
(0 0 0 -0.0686805853894 3.65622341437e-23 -2.06195621999e-23 -0.084988816172 -1.53426605322e-23 4.88443755602e-23)
(0 0 0 -0.0852019893145 4.10738863835e-23 -2.30668294003e-23 -0.085201130456 -2.30649186693e-23 4.10801897403e-23)
(0 0 0 -0.100568266847 4.27293756553e-23 -2.40001514292e-23 -0.0854571465604 -3.10564064202e-23 3.31298924671e-23)
(0 0 0 -0.115026097789 4.17883549359e-23 -2.35692855351e-23 -0.085728964141 -3.88251050248e-23 2.54898418044e-23)
(0 0 0 -0.128833602636 3.86484174156e-23 -2.1973483533e-23 -0.0859808112576 -4.59798331367e-23 1.85426498371e-23)
(0 0 0 -0.142241765591 3.37333168073e-23 -1.94249951076e-23 -0.0861735133523 -5.22272702731e-23 1.25436424898e-23)
(0 0 0 -0.15548665545 2.74774162876e-23 -1.61109103133e-23 -0.0862681615049 -5.74005468263e-23 7.66117156769e-24)
(0 0 0 -0.1687877623 2.03041691426e-23 -1.22145932644e-23 -0.0862288340443 -6.13905354588e-23 3.97540590894e-24)
(0 0 0 -0.182349268737 1.25976529109e-23 -7.896203213e-24 -0.0860245018444 -6.41804777545e-23 1.50593001705e-24)
(0 0 0 -0.196362456299 4.6880424984e-24 -3.29907523488e-24 -0.0856302901317 -6.58142669759e-23 2.24201756438e-25)
(0 0 0 -0.211008375622 -3.13868921453e-24 1.44593549273e-24 -0.0850282314279 -6.63400468986e-23 6.63860872528e-26)
(0 0 0 -0.226460446249 -1.06430029969e-23 6.23621218364e-24 -0.0842075981469 -6.58208408947e-23 9.45960160076e-25)
(0 0 0 -0.242886936946 -1.76512290081e-23 1.09734410548e-23 -0.0831648700081 -6.44378213834e-23 2.75914640879e-24)
(0 0 0 -0.260453416797 -2.40653310642e-23 1.55769941471e-23 -0.0819033778825 -6.23191383348e-23 5.3970520691e-24)
(0 0 0 -0.279325329333 -2.97820099942e-23 1.9978097408e-23 -0.0804326631025 -5.95687504118e-23 8.74060134015e-24)
(0 0 0 -0.299670862952 -3.47191488636e-23 2.41242059963e-23 -0.0787675998356 -5.63164840847e-23 1.26828604129e-23)
(0 0 0 -0.321664292263 -3.8849343241e-23 2.79481719425e-23 -0.0769273376449 -5.27164595418e-23 1.71043880292e-23)
(-6.5023332683e-15 -1.72115328509e-37 -4.30288321272e-38 -0.345489960643 -4.21732562395e-23 3.1411312101e-23 -0.0749341311763 -4.88689401915e-23 2.1906599735e-23)
(0 0 0 -0.371347069838 -4.47700509781e-23 3.44724625263e-23 -0.0728121280495 -4.48682350974e-23 2.69735722228e-23)
(7.14308061423e-15 1.89075769536e-37 4.7268942384e-38 -0.399455448739 -4.6578022697e-23 3.70785550797e-23 -0.0705861851559 -4.08258441433e-23 3.22206219104e-23)
(-3.74337830511e-15 -9.90863987021e-38 -9.90863987021e-38 -0.430062495628 -4.76082419553e-23 3.91998025682e-23 -0.0682807754835 -3.68000380489e-23 3.75557112926e-23)
(0 0 0 -0.463451531579 -4.80429692293e-23 4.07683632214e-23 -0.065919034433 -3.28811042071e-23 4.28837412347e-23)
(4.11225507827e-15 1.08850485588e-37 1.08850485588e-37 -0.499951873949 -4.7874760595e-23 4.17517263734e-23 -0.0635219773196 -2.91033963886e-23 4.81306505099e-23)
(4.31010855843e-15 5.70438118006e-38 1.14087623601e-37 -0.539951040455 -4.70889197713e-23 4.20788733278e-23 -0.06110790195 -2.55213635591e-23 5.32226834358e-23)
(0 0 0 -0.583909631068 -4.5782846543e-23 4.16755466774e-23 -0.0586919728369 -2.21710883196e-23 5.80825789813e-23)
(0 0 0 -0.632379603297 -4.40581520149e-23 4.04717849587e-23 -0.0562859683084 -1.90677108723e-23 6.26378495888e-23)
(0 0 0 -0.686026850058 -4.19569317627e-23 3.83877552378e-23 -0.0538981611591 -1.62204358587e-23 6.68165462462e-23)
(0 0 0 -0.745659174003 -3.95264238187e-23 3.53079149101e-23 -0.0515332942687 -1.36425878251e-23 7.05480564854e-23)
(0 0 0 -0.812260848102 -3.68360555202e-23 3.10938487104e-23 -0.0491926078636 -1.1340492982e-23 7.37680621586e-23)
(0 0 0 -0.887034749904 -3.39380649775e-23 2.56129749956e-23 -0.0468738691479 -9.30069163746e-24 7.64032703059e-23)
(0 0 -1.58524238952e-37 -0.971452056984 -3.08925171802e-23 1.86770054229e-23 -0.0445713490511 -7.51673627435e-24 7.83822754139e-23)
(0 0 0 -1.06730651905 -2.77552425184e-23 1.00657753706e-23 -0.0422756789149 -5.97529543225e-24 7.96260629359e-23)
(0 0 0 -1.17676259146 -2.45749410494e-23 -4.98453622269e-25 -0.0399734971457 -4.66230638055e-24 8.00545866634e-23)
(0 0 0 -1.30236763426 -2.14042691404e-23 -1.33605348311e-23 -0.0376467545397 -3.56241083386e-24 7.95754310316e-23)
(0 0 0 -1.44695235101 -1.82952155581e-23 -2.89239774269e-23 -0.0352714733718 -2.65485886629e-24 7.80886972853e-23)
(0 0 0 -1.61323441349 -1.52946510509e-23 -4.76629949367e-23 -0.0328156376483 -1.92095412718e-24 7.54824482172e-23)
(0 0 0 -1.80268958574 -1.24508568781e-23 -7.00535213583e-23 -0.0302357555917 -1.34241947129e-24 7.16339452861e-23)
(0 0 0 -2.01273347726 -9.8088017806e-24 -9.63538585651e-23 -0.0274717296031 -8.98661865555e-25 6.64166948056e-23)
(0 0 0 -2.23048689099 -7.41918218542e-24 -1.26078725927e-22 -0.0244412418655 -5.70655558048e-25 5.97289741526e-23)