/*--------------------------------*- C++ -*----------------------------------*\
| =========                 |                                                 |
| \\      /  F ield         | OpenFOAM: The Open Source CFD Toolbox           |
|  \\    /   O peration     | Version:  3.0.1                                 |
|   \\  /    A nd           | Web:      www.OpenFOAM.org                      |
|    \\/     M anipulation  |                                                 |
\*---------------------------------------------------------------------------*/
FoamFile
{
    version     2.0;
    format      ascii;
    class       volVectorField;
    location    "50000";
    object      grad(p);
}
// * * * * * * * * * * * * * * * * * * * * * * * * * * * * * * * * * * * * * //

dimensions      [0 1 -2 0 0 0 0];

internalField   nonuniform List<vector> 
2500
(
(0 -1.94942682018e-14 -9.61627939977e-15)
(0 -4.33982711782e-14 -5.40629886352e-15)
(0 -4.32107880531e-14 -3.36950639844e-16)
(0 -2.38368198179e-14 4.84860635977e-15)
(0 -1.07385931895e-14 5.07598876223e-16)
(-1.51354143106e-28 -9.25641749487e-15 -1.14963623354e-15)
(-1.58636265299e-28 -1.85854652165e-14 -2.74410626973e-15)
(-1.6626875321e-28 -4.4197266648e-14 2.35402555527e-15)
(0 -6.3243550605e-14 -6.73418939671e-17)
(0 -6.69215526146e-14 -3.10315842334e-15)
(0 -6.35207363128e-14 -8.85796227787e-16)
(0 -6.19490794447e-14 -2.00508388799e-16)
(-4.20611799807e-28 -4.37819992348e-14 2.13566717103e-15)
(0 -2.63817731515e-14 9.98376421844e-16)
(0 -2.14310502181e-14 3.56570740459e-16)
(0 -1.28439097155e-14 -1.60565658371e-17)
(0 3.01884577944e-15 6.40850461337e-16)
(0 2.21760296815e-14 1.49438942594e-15)
(0 3.9084853425e-14 2.18585394528e-15)
(0 5.31066758968e-14 1.24100073566e-15)
(0 6.53235254704e-14 1.42397356008e-15)
(0 8.23444228055e-14 6.15253477658e-16)
(0 1.00276808608e-13 5.13266611242e-17)
(0 1.20496905291e-13 -8.66172686168e-16)
(0 1.41536807723e-13 -1.05011690301e-15)
(0 1.61768745983e-13 -2.14272379065e-15)
(0 1.81880264592e-13 -2.99712979727e-15)
(0 2.01713224143e-13 -3.74783697603e-15)
(0 2.20473231707e-13 -4.51874778153e-15)
(0 2.38181731764e-13 -5.42339578699e-15)
(0 2.54703495648e-13 -6.46477331177e-15)
(0 2.69418104714e-13 -7.11923190738e-15)
(0 2.83528186204e-13 -7.63968464998e-15)
(0 2.9575038002e-13 -8.33148740061e-15)
(0 3.06975064897e-13 -8.8834620498e-15)
(0 3.16840905954e-13 -9.64385644897e-15)
(0 3.2157238809e-13 -1.043170751e-14)
(0 3.22387637862e-13 -1.09275464964e-14)
(0 3.17942550767e-13 -1.15937711605e-14)
(0 3.07286763217e-13 -1.1963325462e-14)
(0 2.89418138746e-13 -1.25042318177e-14)
(0 2.61427225264e-13 -1.29420883349e-14)
(0 2.22444471649e-13 -1.34075178317e-14)
(0 1.74406190495e-13 -1.3731287768e-14)
(0 1.26030855484e-13 -1.39889220446e-14)
(0 8.93288080569e-14 -1.4146105981e-14)
(0 7.02340163473e-14 -1.42709787418e-14)
(0 6.69323989241e-14 -1.43700829004e-14)
(0 6.7928550937e-14 -1.44735527618e-14)
(0 3.35845450367e-14 -1.4571964716e-14)
(0 -1.52842876656e-14 -3.09035921234e-14)
(0 -3.38750401871e-14 -2.02777377755e-14)
(0 -3.220098989e-14 -6.23975230035e-15)
(0 -2.31384881547e-14 2.73381374222e-15)
(0 -1.77367483688e-14 -1.4523973509e-15)
(-1.58636265298e-28 -1.32731303725e-14 -5.16808578669e-15)
(0 -1.38435876562e-14 -1.36616376213e-14)
(1.74268464039e-28 -4.08030945053e-14 -1.22515171641e-14)
(0 -7.10292365465e-14 -8.21295608901e-15)
(-1.91441077505e-28 -6.79581379001e-14 -2.97260668613e-15)
(0 -5.90397510931e-14 2.23127284678e-16)
(-4.20611799801e-28 -5.69353395951e-14 3.59395983097e-15)
(-4.40848751758e-28 -4.18634236851e-14 7.42762072133e-15)
(0 -2.95628246986e-14 2.84450203679e-15)
(0 -2.33327318839e-14 -5.62592155784e-16)
(0 -1.22340301497e-14 -9.85667114451e-16)
(0 6.15847026399e-15 4.98277075576e-16)
(0 2.55234671006e-14 9.59479011653e-16)
(0 3.84205141728e-14 1.73943927294e-15)
(0 5.13520428024e-14 1.08718317743e-16)
(0 6.37003970155e-14 -1.60439457237e-15)
(0 7.87616208989e-14 -1.7436091704e-15)
(0 9.6184168563e-14 -1.88981436531e-15)
(-1.84807426774e-28 1.17375016228e-13 -2.84490827191e-15)
(0 1.37619822817e-13 -3.88858829853e-15)
(0 1.55627751023e-13 -4.72057852382e-15)
(0 1.76566845478e-13 -7.81355679133e-15)
(0 1.96424179102e-13 -9.27505215931e-15)
(2.92193297344e-29 2.14359342385e-13 -1.11542320071e-14)
(-1.53125816321e-29 2.30740972099e-13 -1.32606606535e-14)
(0 2.47954943847e-13 -1.52831643916e-14)
(0 2.64504403397e-13 -1.73650386699e-14)
(0 2.78182409153e-13 -1.92394217757e-14)
(0 2.9003586522e-13 -2.12176252159e-14)
(0 3.00614927028e-13 -2.30226375183e-14)
(0 3.0900260017e-13 -2.50727123274e-14)
(0 3.14799984541e-13 -2.71973188651e-14)
(0 3.1590515985e-13 -2.90549362642e-14)
(0 3.11947939034e-13 -3.12310271081e-14)
(0 3.01701917306e-13 -3.30507229178e-14)
(0 2.83168652401e-13 -3.47497187612e-14)
(0 2.55362835917e-13 -3.6345964032e-14)
(4.51309548468e-28 2.1691847954e-13 -3.7621014243e-14)
(0 1.70132698369e-13 -3.87661994045e-14)
(0 1.2284478621e-13 -3.9533121238e-14)
(0 8.70513559562e-14 -4.0050936652e-14)
(0 6.83385363502e-14 -4.04122057363e-14)
(0 6.51297837719e-14 -4.07067087778e-14)
(0 6.60477226705e-14 -4.09946809323e-14)
(0 3.26456010336e-14 -4.12590028188e-14)
(0 -9.16293148508e-15 -3.75781141656e-14)
(0 -1.87850467551e-14 -2.70572357586e-14)
(0 -1.92620906084e-14 -1.18464299892e-14)
(0 -1.8998175921e-14 -4.5700806021e-15)
(0 -1.99367918546e-14 -2.61775245348e-15)
(0 -2.39689852034e-14 -5.04291756154e-15)
(-1.74268464042e-28 -2.68341492162e-14 -1.18466811258e-14)
(0 -3.69038942581e-14 -1.85509732776e-14)
(0 -5.09655406073e-14 -1.08064190311e-14)
(0 -5.50335923811e-14 -1.73769943444e-15)
(0 -5.35156371549e-14 9.5348527308e-16)
(0 -5.04403109387e-14 5.6257201826e-15)
(0 -4.52457364981e-14 7.7989101511e-15)
(0 -4.02009264142e-14 3.19997540744e-15)
(0 -2.82856839285e-14 3.27592993053e-15)
(0 -1.07301994831e-14 3.62889983309e-15)
(0 6.9612998867e-15 5.87825217319e-15)
(0 2.49172330737e-14 3.28769977768e-15)
(0 3.70835277094e-14 1.72281909084e-15)
(0 4.54095728732e-14 6.24932566451e-16)
(-3.36459727735e-28 6.09175766121e-14 -4.22180421068e-16)
(0 8.14657673478e-14 -8.62595404129e-16)
(1.84807426772e-28 9.71524923058e-14 -1.40714392353e-15)
(0 1.14856783224e-13 -1.56757231228e-15)
(0 1.35970495357e-13 -4.51748374623e-15)
(2.12786420954e-28 1.49481202209e-13 -6.27285585003e-15)
(-1.11512121283e-28 1.673510993e-13 -8.94970845134e-15)
(0 1.90362429874e-13 -1.21175910081e-14)
(6.12503265317e-29 2.0632463056e-13 -1.56581563368e-14)
(-8.02465896319e-30 2.22809623005e-13 -1.88741612443e-14)
(-6.72860036506e-29 2.38720876597e-13 -2.19300158149e-14)
(0 2.53383346221e-13 -2.51448248105e-14)
(0 2.67117032124e-13 -2.85699544196e-14)
(0 2.78878012513e-13 -3.19040808538e-14)
(0 2.88897550729e-13 -3.53081346867e-14)
(0 2.96316066986e-13 -3.89591132924e-14)
(0 3.01140825334e-13 -4.22862353092e-14)
(-3.73974395651e-28 3.00655289596e-13 -4.60852775581e-14)
(0 2.95500254682e-13 -4.94027790854e-14)
(0 2.86544396929e-13 -5.27987965806e-14)
(0 2.69021673875e-13 -5.56859002687e-14)
(0 2.42818210362e-13 -5.83301939806e-14)
(-4.73023465319e-28 2.05974184882e-13 -6.04354953835e-14)
(-4.95782106704e-28 1.60827190632e-13 -6.21638688624e-14)
(0 1.16459230094e-13 -6.33590712156e-14)
(0 8.24621098731e-14 -6.4185091942e-14)
(0 6.48504180804e-14 -6.4760276259e-14)
(0 6.19082016497e-14 -6.52142796674e-14)
(0 6.29350241796e-14 -6.56691372222e-14)
(0 3.11353259431e-14 -6.60893915237e-14)
(0 -5.42615328128e-15 -2.79061831525e-14)
(0 -9.09264380574e-15 -2.59986067767e-14)
(0 -9.81812551863e-15 -9.55847341767e-15)
(0 -1.3625818932e-14 -3.61692801675e-15)
(0 -1.84556231896e-14 -1.92231877735e-16)
(0 -2.4262084207e-14 4.56511859562e-16)
(0 -3.0364425692e-14 5.7752183159e-16)
(0 -3.89190541639e-14 -2.10714894146e-15)
(0 -4.82899776602e-14 5.89857663707e-16)
(0 -5.16029491282e-14 4.20938906714e-15)
(0 -4.82423780515e-14 6.94775644857e-15)
(0 -4.65155899875e-14 8.16860860453e-15)
(0 -4.605913678e-14 8.30122056757e-15)
(0 -3.72814444948e-14 9.6930197819e-15)
(0 -2.28123833881e-14 1.36103487427e-14)
(0 -7.40118476913e-15 1.56103837073e-14)
(0 5.33721454507e-15 1.44617929827e-14)
(-3.06278677123e-28 1.7327388232e-14 1.22591053747e-14)
(0 3.28639006895e-14 1.05591188243e-14)
(0 4.64229646643e-14 9.56131751912e-15)
(0 6.02187787952e-14 1.05961080347e-14)
(0 7.65297913693e-14 7.97449350062e-15)
(0 9.4488178457e-14 3.80302312827e-15)
(0 1.08935078792e-13 3.20055152109e-15)
(0 1.24694695891e-13 -1.54146718787e-15)
(0 1.42521073277e-13 -5.63019615489e-15)
(0 1.58469884274e-13 -8.73738440243e-15)
(0 1.74898393712e-13 -1.29748267863e-14)
(0 1.91615464966e-13 -1.8332375749e-14)
(0 2.08596182827e-13 -2.28726554961e-14)
(0 2.24679469965e-13 -2.79625097128e-14)
(0 2.38628619081e-13 -3.25332698913e-14)
(0 2.50639718077e-13 -3.77917412814e-14)
(0 2.61260729483e-13 -4.29975847323e-14)
(0 2.69043389748e-13 -4.82238994293e-14)
(0 2.7630961379e-13 -5.31114151806e-14)
(0 2.79712253819e-13 -5.79569072101e-14)
(0 2.7924842882e-13 -6.27034036914e-14)
(0 2.75574123992e-13 -6.70591260254e-14)
(0 2.66143008588e-13 -7.12709874662e-14)
(0 2.50322437257e-13 -7.51971632114e-14)
(0 2.25858113482e-13 -7.8548087294e-14)
(0 1.9193372294e-13 -8.16105839111e-14)
(0 1.50175622086e-13 -8.3752670268e-14)
(0 1.0840006432e-13 -8.53972851852e-14)
(0 7.65572516145e-14 -8.64798302532e-14)
(5.98306197762e-28 6.02503610162e-14 -8.72266324373e-14)
(0 5.76233837603e-14 -8.78161026792e-14)
(0 5.84857350676e-14 -8.84291463447e-14)
(0 2.89263161678e-14 -8.90011586368e-14)
(0 -7.33464468295e-15 -1.61518135376e-14)
(0 -1.71794639341e-15 -1.60464162936e-14)
(0 1.80565514259e-15 1.39873481454e-15)
(0 -9.65806270395e-15 3.04780437218e-15)
(0 -1.57641465418e-14 4.98731102725e-15)
(0 -2.3169548509e-14 6.4502725131e-15)
(0 -2.99543880201e-14 6.81707896248e-15)
(0 -3.68327890676e-14 7.6804979749e-15)
(0 -4.30098092636e-14 9.93927974709e-15)
(0 -4.66676423977e-14 1.3505309466e-14)
(0 -4.79469173769e-14 1.55428159818e-14)
(0 -4.83706506925e-14 1.3097854361e-14)
(0 -4.29654786926e-14 1.46663195988e-14)
(0 -3.16752687645e-14 1.95981449882e-14)
(0 -1.84135372755e-14 2.30233782815e-14)
(0 -9.24231854718e-15 2.13152433839e-14)
(0 8.10581926261e-16 2.22369107598e-14)
(0 1.72291599952e-14 2.11231135905e-14)
(0 3.15885271773e-14 2.09620091465e-14)
(0 4.56316916118e-14 1.64286368124e-14)
(0 5.72523986061e-14 1.63887755863e-14)
(0 6.56920188871e-14 1.19549378471e-14)
(-2.03018561656e-28 8.58395956483e-14 9.24342948648e-15)
(2.12786420952e-28 1.00976258414e-13 4.86703818701e-15)
(0 1.12346645011e-13 9.22779939944e-16)
(0 1.29456190144e-13 -2.30381594363e-15)
(-1.22500653061e-28 1.4571875491e-13 -8.23367158489e-15)
(0 1.60615968062e-13 -1.27346045922e-14)
(0 1.74401819599e-13 -1.89021622655e-14)
(0 1.90187194747e-13 -2.40481385707e-14)
(0 2.04549489812e-13 -3.18803591589e-14)
(0 2.16848774008e-13 -3.80029916021e-14)
(0 2.26420286255e-13 -4.46307970895e-14)
(0 2.36329067071e-13 -5.11037720177e-14)
(0 2.45607943853e-13 -5.72911468357e-14)
(0 2.52623664339e-13 -6.3374870091e-14)
(0 2.55980940721e-13 -6.96409844772e-14)
(0 2.5576878999e-13 -7.54384513145e-14)
(0 2.51245594203e-13 -8.11962927776e-14)
(0 2.42478717393e-13 -8.63328228528e-14)
(0 2.27783051383e-13 -9.11851744975e-14)
(0 2.04709779856e-13 -9.54937208052e-14)
(5.19635737784e-28 1.73676865929e-13 -9.92049164275e-14)
(0 1.36174671477e-13 -1.02033750835e-13)
(0 9.78816527494e-14 -1.0418991206e-13)
(0 6.93831386366e-14 -1.05548873554e-13)
(0 5.48181815192e-14 -1.06497051479e-13)
(0 5.24183146072e-14 -1.07283661869e-13)
(-3.44443501771e-28 5.31440934542e-14 -1.08060069261e-13)
(0 2.62939838834e-14 -1.08771036232e-13)
(1.51354143106e-28 -5.42642500546e-15 8.10346404599e-16)
(0 6.48453698467e-15 1.26397531659e-14)
(0 7.36791576346e-15 1.16524914383e-14)
(0 -1.00920614327e-14 1.27788915338e-14)
(0 -1.50186362244e-14 1.27703451816e-14)
(0 -2.2364515733e-14 1.33589294304e-14)
(0 -2.90126471428e-14 1.40132622855e-14)
(0 -3.527403291e-14 1.50747428298e-14)
(0 -4.11433846835e-14 1.67460259972e-14)
(0 -4.44957870567e-14 1.89589601898e-14)
(0 -4.88929777332e-14 2.20500886998e-14)
(-2.53795612283e-28 -4.76626836936e-14 2.49283136005e-14)
(-2.66006514628e-28 -3.65552921011e-14 2.91914666498e-14)
(0 -2.46133016307e-14 3.04732384829e-14)
(5.84438200707e-28 -2.01148933224e-14 2.75184725292e-14)
(3.06278677139e-28 -8.6729934357e-15 2.6011415326e-14)
(0 4.71739348484e-15 2.91337719257e-14)
(0 1.50686030943e-14 3.022019838e-14)
(0 2.3756017948e-14 2.74204399167e-14)
(0 3.75534072177e-14 2.51828329521e-14)
(0 5.05979936713e-14 2.04038307024e-14)
(-2.03018561663e-28 6.06006629481e-14 1.75626920865e-14)
(0 7.78667150033e-14 1.30786349929e-14)
(0 8.87408640447e-14 8.4068485146e-15)
(0 1.06237149649e-13 4.40195389376e-15)
(2.45001306126e-28 1.17754710453e-13 -8.25418900201e-16)
(0 1.29320968417e-13 -7.06782161029e-15)
(0 1.43411071883e-13 -1.31080502262e-14)
(0 1.56754053475e-13 -2.06948302886e-14)
(3.69582216456e-29 1.6649952942e-13 -2.75336496398e-14)
(-9.68409938031e-30 1.77623481488e-13 -3.44574037457e-14)
(0 1.9328171627e-13 -4.23235277208e-14)
(0 2.01827656212e-13 -4.98253037283e-14)
(0 2.11813930921e-13 -5.72210314464e-14)
(0 2.18881564992e-13 -6.43729680902e-14)
(0 2.23416240557e-13 -7.18861534765e-14)
(0 2.25649613967e-13 -7.91453075416e-14)
(0 2.24943639926e-13 -8.63302477183e-14)
(0 2.21926622077e-13 -9.31845504284e-14)
(0 2.14540818792e-13 -9.96318572069e-14)
(0 2.00765445486e-13 -1.05391179203e-13)
(0 1.80381403881e-13 -1.10591060864e-13)
(0 1.53109341882e-13 -1.1482485012e-13)
(-5.70841236728e-28 1.1918561459e-13 -1.18306620164e-13)
(5.9830619781e-28 8.55370791317e-14 -1.20668427288e-13)
(0 6.08143297809e-14 -1.22319144272e-13)
(0 4.78292243528e-14 -1.23443749821e-13)
(0 4.58667910861e-14 -1.24385994948e-13)
(3.61015758177e-28 4.67630597826e-14 -1.25306659906e-13)
(0 2.31845446138e-14 -1.26159684243e-13)
(0 2.1053313338e-15 2.63205610532e-14)
(0 7.19287750466e-15 2.95702742234e-14)
(8.71342320208e-29 2.22119206563e-15 1.78340525483e-14)
(0 -8.70747364333e-15 2.01089739248e-14)
(0 -1.51761384054e-14 1.96546095672e-14)
(0 -2.19166954385e-14 1.98570154763e-14)
(0 -2.81442732985e-14 2.03870999067e-14)
(0 -3.38127100893e-14 2.1315768732e-14)
(0 -3.85401963647e-14 2.24393487104e-14)
(0 -4.02896310273e-14 2.28677914479e-14)
(0 -4.06194569087e-14 2.81732381103e-14)
(0 -3.9045903573e-14 3.38225637428e-14)
(0 -3.52384954932e-14 3.88040028173e-14)
(0 -3.38732452384e-14 3.91325375619e-14)
(0 -2.50952053048e-14 3.5534011968e-14)
(-3.21014704221e-28 -6.52125370994e-15 3.81428455719e-14)
(0 7.80700734353e-15 3.33389358275e-14)
(0 1.40311310756e-14 3.26038355926e-14)
(0 2.21865457332e-14 2.76385012798e-14)
(0 3.19122244326e-14 2.74775271232e-14)
(0 4.19708238369e-14 2.1358605151e-14)
(0 5.01985390527e-14 2.06470316985e-14)
(-2.23024242564e-28 6.55777745774e-14 1.54154662693e-14)
(0 8.0698022083e-14 1.20070675929e-14)
(0 8.99694581562e-14 5.52208523772e-15)
(0 1.00175788496e-13 -9.60428494048e-16)
(0 1.12784197532e-13 -6.0757790986e-15)
(0 1.2228981889e-13 -1.42006240682e-14)
(-7.39164432954e-29 1.32105082391e-13 -2.04437504639e-14)
(-7.74727950436e-29 1.47559076009e-13 -3.03960515018e-14)
(0 1.56460828297e-13 -3.69656219186e-14)
(0 1.64845507376e-13 -4.57836937905e-14)
(0 1.73533423632e-13 -5.40456884499e-14)
(0 1.82241437324e-13 -6.24484443161e-14)
(0 1.88368004e-13 -7.12534135296e-14)
(0 1.92203728102e-13 -8.00080936401e-14)
(1.07648099641e-28 1.94025685393e-13 -8.84135697247e-14)
(0 1.92682866025e-13 -9.61084924987e-14)
(0 1.88667911655e-13 -1.0404668323e-13)
(0 1.82337133139e-13 -1.11248405158e-13)
(0 1.71149247192e-13 -1.17993409308e-13)
(0 1.53676474197e-13 -1.23744388153e-13)
(0 1.29938050692e-13 -1.28652054855e-13)
(0 1.01499063788e-13 -1.3246580409e-13)
(-3.13546292086e-28 7.29121607228e-14 -1.35098216332e-13)
(0 5.13042872189e-14 -1.36909704836e-13)
(0 4.06598293813e-14 -1.38162944239e-13)
(0 3.90217609584e-14 -1.39188435318e-13)
(0 3.97908163586e-14 -1.40235762831e-13)
(0 1.97167815682e-14 -1.41218294234e-13)
(8.31343766051e-29 -2.62938565705e-15 3.74895319277e-14)
(-8.71342320194e-29 -3.10356889406e-16 2.98077697334e-14)
(0 -2.61952548438e-16 2.62316911477e-14)
(0 -8.53802604476e-15 2.62380764265e-14)
(0 -1.52362371691e-14 2.56471389463e-14)
(0 -2.16539578683e-14 2.57084952703e-14)
(0 -2.75383648727e-14 2.60005700255e-14)
(0 -3.31006438241e-14 2.69441040235e-14)
(0 -3.93755856571e-14 2.84862684975e-14)
(0 -3.77233766151e-14 3.07509754055e-14)
(0 -3.55869542244e-14 3.33192851666e-14)
(0 -3.4148770708e-14 3.65750613473e-14)
(0 -2.97585037343e-14 3.92345230172e-14)
(0 -2.96029677852e-14 4.18533625293e-14)
(0 -2.15442764235e-14 4.52376984127e-14)
(0 -1.2107622148e-14 4.51980998435e-14)
(0 -3.64960992986e-15 4.06082657839e-14)
(0 5.5188857967e-15 3.62575300495e-14)
(0 1.50750221649e-14 3.25226073596e-14)
(0 2.57400552092e-14 2.9487610125e-14)
(-2.1278642094e-28 3.75566518916e-14 2.65755302815e-14)
(-4.46048485141e-28 4.81627835129e-14 2.24995049826e-14)
(-2.33754637862e-28 5.94870092035e-14 1.87905899752e-14)
(2.45001306117e-28 6.6726522052e-14 1.28264089535e-14)
(0 7.59703514493e-14 6.35755691945e-15)
(0 8.9351856035e-14 8.32483657689e-16)
(0 9.52739679889e-14 -5.11831869236e-15)
(0 1.0489717183e-13 -1.3124280648e-14)
(7.74727950466e-29 1.10890576736e-13 -2.04882172568e-14)
(-8.12002540235e-29 1.18285644716e-13 -2.89933006435e-14)
(-4.25535263688e-29 1.30053511458e-13 -3.88241911425e-14)
(0 1.37990863882e-13 -4.78972308191e-14)
(0 1.45268551866e-13 -5.71356721132e-14)
(0 1.50629305937e-13 -6.65382701451e-14)
(0 1.53532264302e-13 -7.67550391211e-14)
(0 1.56509864232e-13 -8.60634824231e-14)
(0 1.59848187215e-13 -9.56519774219e-14)
(-1.18255866326e-28 1.57882476534e-13 -1.04327433149e-13)
(1.23945526681e-28 1.53933242862e-13 -1.12854483028e-13)
(0 1.48864269559e-13 -1.20620803954e-13)
(0 1.39184445823e-13 -1.27692756336e-13)
(-2.85420618393e-28 1.25316702388e-13 -1.34021427539e-13)
(0 1.05922932575e-13 -1.39192295487e-13)
(0 8.26920421045e-14 -1.43350897833e-13)
(0 5.91764301968e-14 -1.46298381044e-13)
(-1.7222175087e-28 4.17413027636e-14 -1.48268406759e-13)
(0 3.2948393817e-14 -1.49659050004e-13)
(-1.8919267888e-28 3.16428260649e-14 -1.50820221199e-13)
(0 3.21804022621e-14 -1.5200003236e-13)
(0 1.59542208619e-14 -1.53106830134e-13)
(0 -3.64046778897e-15 3.75562854445e-14)
(0 -1.37748810353e-15 3.88376108546e-14)
(0 -5.85226288818e-16 3.385478348e-14)
(0 -9.18432307523e-15 3.20704265409e-14)
(0 -1.56152846175e-14 3.08355007285e-14)
(0 -2.15854708128e-14 3.10288121596e-14)
(0 -2.69503627241e-14 3.06958005523e-14)
(0 -3.13376370333e-14 3.16389366578e-14)
(0 -3.46627109828e-14 3.34859749298e-14)
(0 -3.49767653476e-14 3.78652965506e-14)
(0 -3.38183626166e-14 3.7389245817e-14)
(0 -3.18629985346e-14 3.99539553859e-14)
(0 -2.84650674916e-14 3.96916884813e-14)
(0 -2.58781148214e-14 4.2875503982e-14)
(0 -2.0500571094e-14 4.15580941509e-14)
(0 -1.35171131703e-14 4.21562489842e-14)
(0 -6.04434225528e-15 3.98295095232e-14)
(0 1.02399068298e-15 3.93111506511e-14)
(0 1.07955626728e-14 3.72917966673e-14)
(0 2.1421699353e-14 3.20472091281e-14)
(0 2.91418583136e-14 3.09898248935e-14)
(0 3.54359710852e-14 2.4231148613e-14)
(-2.45001306116e-28 4.60683321399e-14 2.15323768932e-14)
(0 5.42674945915e-14 1.46415363935e-14)
(0 6.33244999395e-14 8.13676654986e-15)
(0 7.35316198958e-14 1.92763949389e-15)
(0 7.85643319078e-14 -6.25226525161e-15)
(0 8.30920848931e-14 -1.29324504834e-14)
(-8.12002540291e-29 8.94663405242e-14 -2.12907760684e-14)
(0 9.57565514713e-14 -2.86502674896e-14)
(0 1.00867705792e-13 -3.88285511048e-14)
(0 1.08337940498e-13 -4.82030325509e-14)
(0 1.13259326004e-13 -5.85669846353e-14)
(0 1.15682022644e-13 -6.92716731873e-14)
(3.36400311408e-30 1.1899582775e-13 -8.00296737512e-14)
(0 1.21717909253e-13 -9.02224815488e-14)
(0 1.22820285425e-13 -1.00422777083e-13)
(-6.19727633442e-29 1.22273341282e-13 -1.1023717431e-13)
(0 1.18823349383e-13 -1.19076278001e-13)
(0 1.15655336796e-13 -1.27231017555e-13)
(-1.42710309196e-28 1.08030377601e-13 -1.34621320013e-13)
(0 9.69828461707e-14 -1.41312773871e-13)
(-1.56773146041e-28 8.17433253521e-14 -1.46879192011e-13)
(0 6.30954311492e-14 -1.51340295649e-13)
(-1.72221750886e-28 4.50715164489e-14 -1.54518529324e-13)
(0 3.13628481003e-14 -1.56626622124e-13)
(0 2.47546062785e-14 -1.58156545654e-13)
(0 2.36957937885e-14 -1.59454464655e-13)
(0 2.41123699563e-14 -1.60755501824e-13)
(0 1.19442488748e-14 -1.61984944612e-13)
(0 -1.79597828783e-15 4.31290384904e-14)
(4.78602693762e-29 -3.06559189909e-15 4.54606047215e-14)
(0 -5.20882361073e-15 3.94285154424e-14)
(0 -1.08899935483e-14 3.68865534076e-14)
(0 -1.60697887249e-14 3.47746855668e-14)
(0 -2.17798522509e-14 3.44405076012e-14)
(0 -2.69420622043e-14 3.40574558461e-14)
(0 -3.03989278988e-14 3.46447009972e-14)
(0 -3.30176709093e-14 3.54616801164e-14)
(0 -3.37169281389e-14 3.68139483514e-14)
(0 -3.31872839168e-14 3.68394394243e-14)
(0 -3.15283773539e-14 3.68345040448e-14)
(0 -2.61588969517e-14 3.57855143657e-14)
(-1.68229863869e-28 -2.72561077664e-14 3.64174719005e-14)
(-1.76323929884e-28 -2.23697176642e-14 3.64704251844e-14)
(1.84807426782e-28 -1.46123374988e-14 3.93206059982e-14)
(0 -7.74744412835e-15 3.73445778816e-14)
(0 1.47526042046e-15 3.73493509006e-14)
(-2.12786420959e-28 3.40559830705e-15 3.72577796096e-14)
(-2.23024242564e-28 1.53781673239e-14 3.39078073042e-14)
(0 2.35188727164e-14 3.02676086445e-14)
(-2.45001306133e-28 3.07287935385e-14 2.62626021225e-14)
(0 4.05955747827e-14 2.1511194972e-14)
(0 3.96874813123e-14 1.72709101876e-14)
(-2.82093376685e-28 4.9057611201e-14 1.34644051243e-14)
(0 5.72724826116e-14 5.51806588914e-15)
(0 6.07585109521e-14 -1.94088806429e-15)
(0 6.79202351654e-14 -1.11609968982e-14)
(0 7.06586615386e-14 -1.88522162339e-14)
(0 7.11092477858e-14 -2.87361619634e-14)
(0 7.50496388042e-14 -3.80920141898e-14)
(0 7.97276844325e-14 -4.91155746376e-14)
(0 8.01909722788e-14 -5.99398124498e-14)
(0 8.11313887885e-14 -7.06611570526e-14)
(0 8.25318582264e-14 -8.0855257381e-14)
(0 8.40491485901e-14 -9.21333532873e-14)
(0 8.52872033683e-14 -1.01661574165e-13)
(0 8.51299234546e-14 -1.12348463203e-13)
(8.50995377687e-30 8.43947268786e-14 -1.21495753556e-13)
(0 8.22281711789e-14 -1.30368172701e-13)
(0 7.59345862097e-14 -1.38588461529e-13)
(0 6.76700779228e-14 -1.4561594189e-13)
(0 5.65225661167e-14 -1.51803226332e-13)
(0 4.32853927128e-14 -1.56433669926e-13)
(4.51269697739e-29 3.06232183977e-14 -1.59886156986e-13)
(0 2.11156732199e-14 -1.62094886611e-13)
(0 1.61269019647e-14 -1.63733168056e-13)
(0 1.54055209347e-14 -1.65124440933e-13)
(0 1.56234119046e-14 -1.6655621515e-13)
(0 7.71571421151e-15 -1.67904979554e-13)
(0 -2.02832175687e-15 4.52313271958e-14)
(0 -4.06943122037e-15 4.54973868753e-14)
(0 -6.76881111556e-15 4.28845572571e-14)
(0 -1.26850419916e-14 4.05671225221e-14)
(0 -1.74933582238e-14 3.73804629639e-14)
(0 -2.21760094122e-14 3.7589356553e-14)
(0 -2.67573656683e-14 3.64278710892e-14)
(0 -3.00408223411e-14 3.71498918825e-14)
(0 -3.25533085924e-14 3.67078851447e-14)
(0 -3.3603249042e-14 3.69991717194e-14)
(0 -3.37690750127e-14 3.62305328231e-14)
(0 -3.30051690647e-14 3.50324153269e-14)
(0 -2.87839291533e-14 2.97810792382e-14)
(0 -2.51498342996e-14 3.10675786137e-14)
(0 -1.69174036723e-14 3.54379951637e-14)
(1.93699091294e-28 -1.2581965783e-14 3.26686537572e-14)
(0 -8.73553318011e-15 3.72775994571e-14)
(0 9.17978383415e-16 3.58137255658e-14)
(0 5.20951225209e-15 3.58594196996e-14)
(0 1.02070124109e-14 3.67792340006e-14)
(0 1.63442074234e-14 3.19684749306e-14)
(0 2.01535149439e-14 3.10751706168e-14)
(0 2.96555580077e-14 2.52390224856e-14)
(0 3.8438094084e-14 1.94381128233e-14)
(0 3.92402447142e-14 1.70676922944e-14)
(0 4.08850471199e-14 8.97678475601e-15)
(0 4.1430619662e-14 2.06898470335e-15)
(0 4.39791884362e-14 -6.79902505463e-15)
(0 4.6545692308e-14 -1.6280750363e-14)
(0 4.65412563509e-14 -2.69886394975e-14)
(0 4.61629283325e-14 -3.61813857383e-14)
(0 4.7016487999e-14 -4.77817273518e-14)
(0 4.97097290536e-14 -5.87918449973e-14)
(0 5.10116538699e-14 -6.93670291184e-14)
(0 4.93216284171e-14 -8.00181447124e-14)
(-6.19727633455e-29 5.11450195485e-14 -9.09011172056e-14)
(6.49544672124e-29 5.07582702464e-14 -1.01542597586e-13)
(0 4.84631979051e-14 -1.12085728274e-13)
(0 4.84815290961e-14 -1.21682237629e-13)
(0 4.57954854471e-14 -1.31275887283e-13)
(0 4.2734167319e-14 -1.39593880982e-13)
(0 3.76426913163e-14 -1.4723077738e-13)
(0 3.09205732e-14 -1.53489915895e-13)
(0 2.32929365886e-14 -1.58427200476e-13)
(-2.36490848616e-29 1.59070136091e-14 -1.61935649822e-13)
(0 1.05586990061e-14 -1.64367377905e-13)
(0 7.54870109942e-15 -1.66096768307e-13)
(2.72294475063e-29 6.8605143782e-15 -1.67602935626e-13)
(0 6.7536043302e-15 -1.69149038148e-13)
(0 3.31961806241e-15 -1.70608044291e-13)
(0 -1.64034191992e-15 4.73928081318e-14)
(1.31441187438e-29 -4.65710997787e-15 4.79189217772e-14)
(0 -8.58343727526e-15 4.5985530405e-14)
(0 -1.48570515049e-14 4.02808634876e-14)
(0 -1.82709592911e-14 3.79696042908e-14)
(6.34489030708e-29 -2.2558742141e-14 4.0947057786e-14)
(0 -2.72535619121e-14 3.7381766729e-14)
(0 -3.01680798005e-14 3.72885063441e-14)
(0 -3.31150848192e-14 3.72257819172e-14)
(0 -3.41799070098e-14 3.72440045231e-14)
(0 -3.514546315e-14 3.60238130512e-14)
(0 -3.82982805965e-14 3.75881998258e-14)
(-1.76323929882e-28 -3.03701196377e-14 3.43947788415e-14)
(0 -2.07140702845e-14 3.27535454481e-14)
(1.9369909129e-28 -2.04293751078e-14 3.14974593719e-14)
(0 -1.20315060683e-14 3.29867115496e-14)
(0 -3.90382712815e-15 3.35930298128e-14)
(0 -4.27503808443e-16 3.35513881944e-14)
(0 4.89146806721e-15 3.33473181479e-14)
(0 9.13712899784e-15 3.19678193437e-14)
(0 1.44171333481e-14 3.16127664874e-14)
(1.34572007311e-28 1.90279343057e-14 2.97702331952e-14)
(0 2.01119727479e-14 2.82900036e-14)
(0 2.50684879505e-14 2.19313573816e-14)
(0 2.86193723893e-14 1.64151677706e-14)
(0 2.69205757074e-14 9.38487247633e-15)
(-1.70214105485e-28 2.70841074638e-14 2.85108673876e-15)
(0 2.69347776405e-14 -3.77820549254e-15)
(0 2.35250594876e-14 -1.14499138173e-14)
(-9.7991868975e-29 2.2583425762e-14 -2.16513931235e-14)
(0 2.15828034363e-14 -3.10382864019e-14)
(0 1.89976659486e-14 -4.231357336e-14)
(0 1.95199773282e-14 -5.36605407098e-14)
(1.1825586632e-28 1.86243966736e-14 -6.53801628582e-14)
(0 1.60021702047e-14 -7.66972413711e-14)
(0 1.44715594e-14 -8.76467657305e-14)
(0 1.34756476239e-14 -9.91520176789e-14)
(0 1.35417777626e-14 -1.09688462467e-13)
(0 1.2855123906e-14 -1.20049136897e-13)
(0 1.229661611e-14 -1.29504185874e-13)
(8.21579967225e-29 1.06401929255e-14 -1.38308576651e-13)
(-8.61108754422e-29 8.15543191903e-15 -1.46047425059e-13)
(0 6.27346554138e-15 -1.52586261295e-13)
(0 3.61573647469e-15 -1.5769631086e-13)
(0 1.38890506085e-15 -1.61280067982e-13)
(0 -3.43176607311e-16 -1.63822951969e-13)
(0 -1.4007035909e-15 -1.65635039696e-13)
(0 -1.96034327128e-15 -1.67241049199e-13)
(0 -2.28183165837e-15 -1.68894130051e-13)
(0 -1.18704954219e-15 -1.70443172813e-13)
(-1.3144118744e-29 -1.69675736695e-15 4.37376205454e-14)
(0 -4.9911302899e-15 4.50029879705e-14)
(0 -1.17978771864e-14 4.07431523e-14)
(0 -1.81090607166e-14 3.62091057027e-14)
(0 -1.69732464658e-14 3.57779209802e-14)
(3.32508143286e-29 -2.27400898037e-14 3.52604895632e-14)
(0 -2.95432172342e-14 3.61315470014e-14)
(0 -3.01723722404e-14 3.42618327262e-14)
(0 -3.2615246265e-14 3.44773944586e-14)
(0 -3.47246317845e-14 3.83603215118e-14)
(0 -3.34504211833e-14 3.33838332703e-14)
(1.76323929882e-28 -3.49489934677e-14 3.29182679603e-14)
(0 -3.37703617321e-14 3.74539855775e-14)
(0 -2.80462731737e-14 3.30627821126e-14)
(-2.03018561658e-28 -1.67437631748e-14 3.22584552888e-14)
(0 -1.01102786683e-14 3.28542829344e-14)
(-2.23024242566e-28 -7.83470621559e-15 3.21886218031e-14)
(0 5.33006066035e-16 3.17266735919e-14)
(2.45001306129e-28 3.00756723234e-15 3.09810817363e-14)
(0 7.72401186274e-15 3.03847417317e-14)
(0 1.29261893969e-14 3.02314037137e-14)
(0 1.49212115536e-14 2.79378665598e-14)
(0 1.61869186348e-14 2.58418795951e-14)
(0 1.74672194204e-14 2.29017221e-14)
(1.62400508046e-28 1.61076409426e-14 1.76773662507e-14)
(0 1.467895359e-14 1.19456044581e-14)
(0 1.47423174378e-14 5.97905678114e-15)
(0 1.35104891634e-14 -9.65962466054e-16)
(1.95983737963e-28 6.53977192648e-15 -9.05867570133e-15)
(0 8.92621946978e-16 -1.74390155747e-14)
(2.15296199299e-28 -4.37126898893e-15 -2.70628114661e-14)
(0 -1.08476587983e-14 -3.72141271068e-14)
(0 -1.2159404887e-14 -4.82475167367e-14)
(0 -1.37362559176e-14 -6.05129349594e-14)
(0 -1.62977069614e-14 -7.17798359882e-14)
(0 -1.83451963828e-14 -8.32104067101e-14)
(1.4271030918e-28 -2.06023872436e-14 -9.43226716877e-14)
(0 -2.24072119521e-14 -1.05140945676e-13)
(0 -2.19366455911e-14 -1.15661897178e-13)
(1.6431599344e-28 -2.21881514442e-14 -1.25441672389e-13)
(0 -2.17934989755e-14 -1.34584563409e-13)
(1.80507879091e-28 -2.07221021889e-14 -1.42453783201e-13)
(0 -1.89188163287e-14 -1.4902937303e-13)
(0 -1.56636228231e-14 -1.5423734693e-13)
(0 -1.28700815383e-14 -1.57850307792e-13)
(-2.1783558005e-28 -1.08859227082e-14 -1.60370385277e-13)
(0 -1.01352207496e-14 -1.62240808831e-13)
(0 -1.08367278654e-14 -1.63876553826e-13)
(-2.50814884695e-28 -1.14490482632e-14 -1.65594459118e-13)
(0 -5.70110415852e-15 -1.67228921399e-13)
(0 -9.2295453147e-16 3.91728030206e-14)
(0 -6.49287144152e-15 3.52031852485e-14)
(0 -1.410542951e-14 2.61466414263e-14)
(0 -1.81228442325e-14 2.83778537918e-14)
(0 -1.88491635119e-14 2.99041872444e-14)
(0 -2.22954729453e-14 2.55274830356e-14)
(0 -2.81421278165e-14 3.62337787402e-14)
(0 -3.1408200732e-14 3.2082905591e-14)
(0 -2.97041564912e-14 2.92910825877e-14)
(0 -3.530948954e-14 3.25880425952e-14)
(0 -3.98135929486e-14 2.71986296323e-14)
(0 -3.42408287592e-14 2.36413041659e-14)
(0 -3.05899019356e-14 3.18073417751e-14)
(0 -2.62848805384e-14 2.95567884573e-14)
(0 -2.04486731737e-14 3.15601261177e-14)
(-2.23024242564e-28 -1.20552110216e-14 3.04021394858e-14)
(2.33754637858e-28 -5.40818712586e-15 2.93258256756e-14)
(0 -1.88395351005e-15 2.74746193542e-14)
(0 3.07134802678e-15 2.65422547726e-14)
(0 8.06862332201e-15 2.71292134745e-14)