/*--------------------------------*- C++ -*----------------------------------*\
| =========                 |                                                 |
| \\      /  F ield         | OpenFOAM: The Open Source CFD Toolbox           |
|  \\    /   O peration     | Version:  3.0.1                                 |
|   \\  /    A nd           | Web:      www.OpenFOAM.org                      |
|    \\/     M anipulation  |                                                 |
\*---------------------------------------------------------------------------*/
FoamFile
{
    version     2.0;
    format      ascii;
    class       volVectorField;
    location    "50000";
    object      grad(k);
}
// * * * * * * * * * * * * * * * * * * * * * * * * * * * * * * * * * * * * * //

dimensions      [0 1 -2 0 0 0 0];

internalField   nonuniform List<vector> 
2500
(
(0 0.00020594464476 0.000205930806925)
(0 0.000598057748205 0.000205678024681)
(0 0.000945273964191 0.000205219356115)
(0 0.00124141162187 0.000204554657795)
(0 0.00148787069121 0.00020359924574)
(2.08019550322e-17 0.00169069427509 0.000202185795596)
(0 0.00185796248295 0.000200093107119)
(2.28518034363e-17 0.00199804425757 0.000197083220472)
(0 0.00211863167164 0.000192935349981)
(0 0.00222629751729 0.000187472145063)
(0 0.00232634643971 0.00018057748347)
(0 0.00242281088649 0.000172206323665)
(2.89042227917e-17 0.00251851042253 0.000162387485697)
(0 0.00261513477582 0.00015122032375)
(0 0.00271333302355 0.000138866372715)
(0 0.00281280125307 0.000125537198085)
(0 0.00291236436887 0.000111479799569)
(0 0.00301004784929 9.69609674403e-05)
(0 0.00310313400876 8.22519171149e-05)
(0 0.00318819562814 6.76143469425e-05)
(0 0.00326109801563 5.32887864707e-05)
(0 0.00331695863118 3.94857781283e-05)
(0 0.00335005107502 2.63801022834e-05)
(0 0.0033536369834 1.41079570361e-05)
(0 0.00331970449234 2.76677337117e-06)
(0 0.00323858447089 -7.58280728851e-06)
(0 0.00309840437632 -1.69133397017e-05)
(0 0.00288432253944 -2.52259113717e-05)
(0 0.00257746045268 -3.25449032893e-05)
(0 0.00215341368585 -3.89125777275e-05)
(0 0.00158016897101 -4.43837805958e-05)
(0 0.000815180971643 -4.90209188966e-05)
(0 -0.000198734652544 -5.28892280085e-05)
(0 -0.00153914404637 -5.60521710749e-05)
(0 -0.00331189286645 -5.85665612728e-05)
(0 -0.00566152327581 -6.04765999069e-05)
(0 -0.00878366797411 -6.18052880164e-05)
(0 -0.0129357540164 -6.25403160595e-05)
(0 -0.0184331986266 -6.26090691847e-05)
(0 -0.0255942664805 -6.18336219972e-05)
(0 -0.0345429461093 -5.98541690028e-05)
(0 -0.0447006765577 -5.60255268387e-05)
(0 -0.0538745035111 -4.93918001045e-05)
(0 -0.0577303937018 -3.91433629969e-05)
(0 -0.0520463447616 -2.60772825107e-05)
(0 -0.0376831504319 -1.36406139762e-05)
(0 -0.0212149858523 -5.30118457286e-06)
(0 -0.0088166843484 -1.40046257306e-06)
(0 -0.00161815274371 -2.32429344992e-07)
(0 -0.00144795080346 -3.38397499556e-07)
(0 0.000205691862517 0.000598020304418)
(0 0.000597324229412 0.000597286708573)
(0 0.00094406302919 0.000595969940215)
(0 0.00123958136637 0.000594092633104)
(0 0.00148506489294 0.000591435343498)
(2.18028022853e-17 0.00168634158592 0.000587535948721)
(0 0.00185132529408 0.00058176799896)
(-2.39512753207e-17 0.00198829056928 0.000573445374842)
(0 0.00210491189412 0.000561919793791)
(2.63114613438e-17 0.00220781705179 0.000546657675807)
(0 0.00230242963137 0.000527293599843)
(2.89042227913e-17 0.00239295366257 0.000503661540288)
(3.02948955405e-17 0.00248241946586 0.000475806107343)
(0 0.00257275152785 0.00044397630404)
(0 0.00266484157416 0.000408604625215)
(0 0.00275862023977 0.000370274743021)
(0 0.00285312423286 0.000329681418016)
(0 0.00294655595226 0.000287586486476)
(0 0.0030363310085 0.000244774680103)
(0 0.00311910701573 0.000202012635875)
(0 0.00319078477502 0.000160013762652)
(0 0.00324647062836 0.000119410767187)
(0 0.00328038609967 8.07367174845e-05)
(0 0.00328570749491 4.44146506283e-05)
(0 0.00325431320176 1.07550174918e-05)
(0 0.0031764090324 -2.00402509444e-05)
(0 0.00303999077461 -4.78685521242e-05)
(0 0.00283008628965 -7.27138607208e-05)
(-3.21269927988e-17 0.00252769449882 -9.46318790685e-05)
(0 0.00210830192161 -0.000113734324662)
(0 0.00153980462255 -0.000130173268378)
(0 0.000779589755762 -0.000144126072596)
(0 -0.00022956546737 -0.000155781043842)
(0 -0.00156522734656 -0.000165323391506)
(0 -0.00333318674366 -0.0001729203316)
(0 -0.00567784404567 -0.000178702968432)
(0 -0.00879454010921 -0.000182740406724)
(-4.90392190391e-17 -0.0129401354411 -0.00018499749992)
(0 -0.0184289653477 -0.000185260347204)
(0 -0.0255772693319 -0.000183002491717)
(0 -0.0345054909074 -0.000177157799931)
(0 -0.0446300436216 -0.000165814633561)
(1.55068780083e-17 -0.0537551965695 -0.000146145208032)
(0 -0.0575580781544 -0.000115769563535)
(0 -0.0518494609089 -7.70823332966e-05)
(0 -0.037515721514 -4.03015669047e-05)
(0 -0.021112003559 -1.56586675261e-05)
(0 -0.00877217354898 -4.13645074189e-06)
(0 -0.00160853119588 -6.86762960966e-07)
(0 -0.0014423492306 -1.00137473146e-06)
(0 0.000205233120434 0.000945222357451)
(0 0.000596007387539 0.000944011097801)
(0 0.000941933978199 0.00094188179301)
(0 0.00123644083266 0.000938953080344)
(0 0.00148033300522 0.000934969812951)
(0 0.00167904400243 0.000929283188933)
(0 0.0018401701721 0.000920959457847)
(0 0.00197179001083 0.000908936506014)
(0 0.00208151563382 0.000892175168143)
(0 0.0021760416936 0.000869782523872)
(0 0.00226097530716 0.000841101488087)
(0 0.00234080314725 0.000805767629488)
(0 0.00241891566452 0.000763735980799)
(0 0.00249764982911 0.000715281066051)
(0 0.00257833462039 0.00066097376925)
(0 0.00266133433415 0.000601639281901)
(0 0.00274608867056 0.000538301035807)
(0 0.00283114867757 0.000472116038034)
(0 0.00291420583621 0.000404307173971)
(0 0.00299210892369 0.000336097755441)
(0 0.00306086029839 0.000268652842672)
(0 0.00311558015868 0.000203030779661)
(-5.07994786587e-17 0.0031504239979 0.000140147071575)
(0 0.00315843455372 8.07513957772e-05)
(0 0.00313130438518 2.5417328346e-05)
(-2.92451430089e-17 0.00305901781883 -2.54566004205e-05)
(3.06522184972e-17 0.00292933002614 -7.1636544092e-05)
(0 0.00272702452145 -0.000113036010737)
(-3.36727231133e-17 0.00243286580166 -0.000149693906684)
(-3.52928233559e-17 0.00202212767688 -0.000181750054426)
(-7.39817434004e-17 0.00146252559343 -0.000209419858813)
(0 0.000711308288489 -0.000232969226476)
(0 -0.000288831172576 -0.000252690149119)
(0 -0.0016154708402 -0.000268876469984)
(4.46403117399e-17 -0.00337430903514 -0.000281798091167)
(0 -0.00570948869563 -0.000291669840667)
(0 -0.00881580947409 -0.000298607591217)
(-5.13986495636e-17 -0.0129490726132 -0.000302557530534)
(0 -0.0184215843173 -0.000303172478674)
(0 -0.0255457837991 -0.000299590919349)
(0 -0.0344354701555 -0.000290063567539)
(0 -0.0444976731124 -0.000271454269507)
(-3.25059250206e-17 -0.0535315927471 -0.000239138155679)
(0 -0.0572354831733 -0.000189270808466)
(0 -0.0514814387119 -0.000125884875729)
(0 -0.0372031951229 -6.57577461298e-05)
(0 -0.0209199526552 -2.55373468869e-05)
(0 -0.00868920215397 -6.74527703673e-06)
(0 -0.00159061404561 -1.12069021009e-06)
(-1.76432954495e-19 -0.00143188800419 -1.63880987865e-06)
(0 0.000204568196727 0.00124135605459)
(0 0.000594129612891 0.00123952506789)
(0 0.000939005023383 0.00123638364142)
(0 0.00123233357413 0.0012322759448)
(0 0.00147442577257 0.0012270681011)
(0 0.0016701756977 0.00122008588483)
(0 0.00182672010805 0.00121023060719)
(0 0.00195182324356 0.00119616984373)
(0 0.00205295105127 0.00117653174873)
(0 0.0021368200661 0.00115007027721)
(0 0.00220921610919 0.00111579152779)
(0 0.00227494344308 0.00107304091104)
(0 0.00233782547249 0.00102155369611)
(0 0.00240071873829 0.000961472109303)
(0 0.00246552525773 0.000893332512293)
(0 0.00253319990364 0.000818026807899)
(0 0.00260375411043 0.000736743069765)
(0 0.00267625769606 0.000650891222745)
(0 0.0027488387685 0.000562020194287)
(0 0.00281867859817 0.000471733097007)
(0 0.00288199460544 0.000381606625053)
(0 0.00293400056524 0.000293119943126)
(0 0.00296882881876 0.000207597020783)
(0 0.00297939454254 0.000126164802381)
(0 0.00295717635015 4.97279864747e-05)
(0 0.00289187984259 -2.10402677292e-05)
(0 0.0027709397866 -8.56935508892e-05)
(0 0.00257880042909 -0.000143995933921)
(3.52928233578e-17 0.00229588943246 -0.000195897173406)
(0 0.00189716540113 -0.000241502296713)
(0 0.00135006757613 -0.000281038100454)
(0 0.000611624392244 -0.00031481843509)
(0 -0.000375616100719 -0.000343209241256)
(0 -0.00168927410797 -0.000366593055032)
(0 -0.00343494059197 -0.000385330908893)
(0 -0.00575641464541 -0.000399716640019)
(-5.13986495571e-17 -0.00884774650388 -0.000409913517754)
(0 -0.012963250274 -0.000415853742181)
(0 -0.0184123685102 -0.000417064723405)
(0 -0.0255021715249 -0.000412361049726)
(0 -0.0343370884391 -0.000399327241965)
(0 -0.0443109948252 -0.000373633941794)
(0 -0.0532162433629 -0.000328925172164)
(0 -0.0567813355783 -0.000260012866336)
(0 -0.0509646019129 -0.000172668722205)
(0 -0.0367652615011 -9.00798103747e-05)
(2.56970555238e-18 -0.020651229337 -3.49596472451e-05)
(0 -0.00857318613812 -9.23255398521e-06)
(0 -0.00156560091364 -1.53549412658e-06)
(0 -0.00141721763458 -2.25466534761e-06)
(0 0.000203612364657 0.0014878193885)
(0 0.000591471321625 0.00148501236146)
(0 0.000935020756367 0.00148027875447)
(0 0.00122712531246 0.00147437011295)
(0 0.00146753584024 0.00146747962786)
(0 0.00166049232659 0.00145911156651)
(0 0.00181253682701 0.00144818146879)
(0 0.00193098483901 0.00143322438075)
(0 0.00202303535144 0.00141262222132)
(0 0.00209532758547 0.00138480658012)
(0 0.00215375380877 0.00134842185132)
(0 0.00220339477247 0.0013024463803)
(0 0.00224850031722 0.00124627348185)
(0 0.00229247691154 0.00117975505639)
(0 0.00233786734645 0.00110321071745)
(0 0.0023863202653 0.00101740574822)
(0 0.00243855272777 0.00092350199903)
(0 0.00249431027884 0.000822986852632)
(0 0.00255232761155 0.000717586387416)
(0 0.00261028983112 0.000609169606411)
(-5.07994786586e-17 0.00266479015057 0.00049965088414)
(0 0.0027112749635 0.000390897476603)
(2.79026586493e-17 0.002743961869 0.000284648056703)
(-5.84902860174e-17 0.00275571031298 0.000182446839173)
(0 0.00273781772932 8.55961355761e-05)
(6.4253985598e-17 0.00267970565384 -4.87164064462e-06)
(3.36727231128e-17 0.00256844898265 -8.82031992608e-05)
(3.52928233562e-17 0.00238808541669 -0.000163916878791)
(0 0.00211861850501 -0.000231781412829)
(0 0.00173459294268 -0.000291784349622)
(0 0.00120307041682 -0.000344093443823)
(0 0.000480763861065 -0.000389013786683)
(0 -0.000490003540062 -0.000426942442022)
(0 -0.00178694781999 -0.000458320827563)
(0 -0.00351556483016 -0.000483582743089)
(0 -0.0058192553892 -0.000503092151355)
(0 -0.0088911528605 -0.000517058164886)
(0 -0.0129837151184 -0.000525402624073)
(0 -0.0184027830334 -0.00052753438325)
(0 -0.0254486629276 -0.000521952921114)
(0 -0.0342140062418 -0.000505588235342)
(0 -0.0440762860377 -0.000472940481106)
(1.78545479969e-17 -0.0528197505769 -0.000415981990384)
(0 -0.0562116793675 -0.000328315253749)
(0 -0.0503184013247 -0.000217601466568)
(0 -0.0362193042625 -0.000113336896877)
(0 -0.0203168625689 -4.39488907242e-05)
(-3.52865909022e-19 -0.00842896065284 -1.16042388199e-05)
(0 -0.00153457190221 -1.93245441847e-06)
(0 -0.00139890878177 -2.85252917439e-06)
(-2.08019550322e-17 0.000202198297045 0.00169065251483)
(-2.18028022853e-17 0.000587570371115 0.00168629808342)
(-2.28518034366e-17 0.000929332310381 0.00167899790416)
(0 0.0012201416851 0.0016701271165)
(0 0.00145916725151 0.00166044205767)
(0 0.00164990714684 0.00164985629844)
(0 0.00179818207573 0.00163750460408)
(0 0.00191071445837 0.00162195424819)
(0 0.00199428884264 0.00160145679087)
(0 0.00205532624841 0.00157418428457)
(0 0.00209969852021 0.00153842832077)
(3.4881403348e-17 0.00213265684167 0.00149275690481)
(3.65596569873e-17 0.00215879904684 0.00143613007814)
(0 0.00218203728691 0.00136797652922)
(-8.03245746743e-17 0.00220555069967 0.00128823341385)
(0 0.00223172073606 0.00119735162898)
(0 0.00226205328238 0.00109626925053)
(0 0.00229709401707 0.000986356773156)
(0 0.00233634295286 0.000869338978429)
(5.07994786577e-17 0.00237817162561 0.000747199486125)
(0 0.00241974234951 0.0006220750388)
(2.79026586504e-17 0.0024569237296 0.000496147113429)
(0 0.00248419041001 0.000371538380146)
(0 0.00249448795229 0.000250220772843)
(0 0.00247903562804 0.000133940568221)
(-3.36727231132e-17 0.00242703025692 2.41640433738e-05)
(0 0.00232520196667 -7.79547415643e-05)
(0 0.00215715610261 -0.000171584450739)
(0 0.00190241191732 -0.000256207318551)
(-8.12719888825e-17 0.00153501443121 -0.000331593515028)
(4.25911194927e-17 0.00102154658459 -0.000397762724337)
(0 0.000318300100741 -0.000454936477671)
(0 -0.000632725390284 -0.000503483926838)
(0 -0.00190942043274 -0.000543862086325)
(0 -0.00361722776563 -0.000576548781727)
(0 -0.00589912990154 -0.000601961851139)
(0 -0.00894721725176 -0.000620349902114)
(0 -0.0130117776504 -0.000631625076422)
(0 -0.0183943974671 -0.000635082349274)
(0 -0.0253873727767 -0.000628912146281)
(0 -0.0340694438723 -0.000609396902918)
(0 -0.0437989003871 -0.000569882016546)
(1.87135862598e-17 -0.0523511449743 -0.000500723108591)
(-1.96139555436e-17 -0.055540352111 -0.000394460554898)
(1.02788222104e-17 -0.0495598491364 -0.000260837039034)
(0 -0.0355806806806 -0.000135596382448)
(0 -0.0199266486212 -5.25288845381e-05)
(0 -0.00826083027922 -1.38665036094e-05)
(9.69094296694e-20 -0.00149849526146 -2.31284605641e-06)
(0 -0.00137746183043 -3.43573359946e-06)
(0 0.000200104820269 0.00185793283294)
(0 0.00058180037728 0.0018512934288)
(-2.39512753211e-17 0.000921006010206 0.00184013488761)
(0 0.00121028406099 0.00182668130593)
(0 0.00144823556776 0.00181249521224)
(0 0.00163755489961 0.00179813874967)
(0 0.00178322765238 0.00178318378808)
(0 0.00189123850442 0.00176641370595)
(0 0.00196779701819 0.00174609166391)
(0 0.0020189398709 0.00172022582259)
(0 0.00205035466379 0.00168680231381)
(0 0.002067309025 0.00164397762723)
(0 0.00207461274627 0.00159023023828)
(0 0.00207657441938 0.00152447336056)
(0 0.00207693605984 0.00144613058838)
(-4.41199249973e-17 0.00207878233366 0.00135517575627)
(0 0.00208442821801 0.00125213830853)
(0 0.00209529228054 0.00113807601096)
(0 0.0021117634303 0.00101451790135)
(0 0.00213306757835 0.000883381778228)
(0 0.00215713741558 0.000746872036192)
(0 0.00218048364163 0.000607364994695)
(6.13044369937e-17 0.00219805956611 0.000467289766614)
(0 0.00220310313737 0.000329012958882)
(0 0.00218693108475 0.000194734967959)
(0 0.00213864868404 6.64043442572e-05)
(0 0.00204472489328 -5.43451953049e-05)
(0 0.00188836475857 -0.000166232767909)
(4.06359944436e-17 0.00164858669506 -0.000268343243704)
(4.25911194934e-17 0.00129887802904 -0.000360116940854)
(0 0.000805253714334 -0.000441319304484)
(0 0.000123476179069 -0.000511994355851)
(0 -0.00080489150911 -0.000572405328174)
(0 -0.00205801671646 -0.00062296439209)
(0 -0.00374136167512 -0.00066415033273)
(0 -0.00599750683335 -0.000696407536963)
(5.91801686319e-17 -0.00901741628348 -0.000720009822454)
(0 -0.0130489479317 -0.000734854931548)
(0 -0.0183888587246 -0.000740124888417)
(0 -0.025320319011 -0.000733703688547)
(0 -0.0339062650828 -0.000711228678696)
(0 -0.0434834451631 -0.000664900490391)
(0 -0.0518181785005 -0.000583510606486)
(0 -0.0547793624003 -0.00045869831135)
(-1.07733685623e-17 -0.0487038768058 -0.000302515684957)
(0 -0.0348629664237 -0.000156922678346)
(0 -0.0194892762912 -6.07232008694e-05)
(0 -0.00807261789792 -1.6025528444e-05)
(0 -0.00145823587864 -2.67792112046e-06)
(0 -0.0013533151359 -4.00742529718e-06)
(-2.28518034363e-17 0.00019709401473 0.00199802729405)
(2.39512753207e-17 0.000573475329158 0.00198827099055)
(0 0.000908979891428 0.00197176630587)
(0 0.00119622017861 0.00195179511348)
(0 0.00143327599234 0.00193095288752)
(0 0.00162200299989 0.00191067976098)
(0 0.00176645705672 0.00189120225445)
(0 0.00187175054267 0.00187171383366)
(0 0.00194335825802 0.00185065147413)
(0 0.00198675758399 0.00182598457036)
(0 0.00200726922315 0.00179547846445)
(0 0.00200999389937 0.00175692027453)
(0 0.00199977720935 0.00170830552987)
(0 0.00198116449509 0.00164798726042)
(0 0.00195832784566 0.00157478917343)
(0 0.00193496002876 0.00148808371468)
(0 0.00191413771555 0.00138783520056)
(0 0.00189816053534 0.00127460818525)
(0 0.00188837429936 0.00114954187138)
(0 0.00188498661506 0.00101429259676)
(2.92451430071e-17 0.0018868811706 0.000870948075164)
(3.06522184978e-17 0.0018914331694 0.000721918904651)
(3.2126992797e-17 0.00189432261033 0.00056981458569)
(-3.3672723112e-17 0.00188933425152 0.000417312615559)
(0 0.00186812303759 0.000267029860651)
(0 0.00181991128239 0.000121405170688)
(0 0.00173106840943 -1.73989550782e-05)
(0 0.00158450441589 -0.000147569787424)
(-4.2591119495e-17 0.00135878243838 -0.000267689456252)
(0 0.00102682072922 -0.000376750872577)
(4.67880970454e-17 0.00055400601958 -0.000474145901505)
(0 -0.00010452533645 -0.000559628770822)
(0 -0.00100776466842 -0.000633258179487)
(0 -0.00223427677758 -0.000695320612699)
(0 -0.00388964481233 -0.000746234389557)
(0 -0.00611610031146 -0.0007864279159)
(0 -0.0091034418775 -0.000816174279349)
(-3.25059250194e-17 -0.0130968917037 -0.000835343768677)
(3.40698869492e-17 -0.0183878761869 -0.00084300052813)
(0 -0.0252494427022 -0.000836720150473)
(0 -0.0337270459326 -0.00081149271232)
(-1.96139555457e-17 -0.0431339220953 -0.000758379271948)
(0 -0.0512275571183 -0.000664659291945)
(0 -0.0539391955795 -0.000521246873692)
(0 -0.047763636065 -0.00034276325799)
(-2.95874715059e-18 -0.0340781726714 -0.00017737593492)
(0 -0.0190124442073 -6.85544719284e-05)
(-4.06288184217e-19 -0.00786771207167 -1.8087301618e-05)
(0 -0.00141456423323 -3.02888812446e-06)
(0 -0.00132685228313 -4.57061005087e-06)
(0 0.000192945138823 0.00211862671462)
(0 0.000561947066244 0.00210490401313)
(0 0.000892214964137 0.00208150306861)
(0 0.00117657839425 0.0020529333255)
(0 0.00141267065468 0.00202301296601)
(0 0.00160150321737 0.00199426283476)
(0 0.00174613365335 0.00196776858651)
(0 0.00185068774517 0.00194332852503)
(0 0.00191975910319 0.00191972900304)
(0 0.0019580966401 0.00189505001162)
(0 0.00197046891226 0.0018669541368)
(0 0.00196161436289 0.00183294192851)
(0 0.00193621566273 0.00179057049753)
(0 0.0018988612586 0.0017376367464)
(0 0.00185397502613 0.00167232698105)
(0 0.00180570662407 0.00159333358366)
(0 0.00175778259216 0.00149993829014)
(0 0.00171332285837 0.00139206096745)
(0 0.00167462998751 0.00127027285081)
(0 0.00164295958182 0.00113577395942)
(0 0.00161827975212 0.000990335816581)
(0 0.00159902529465 0.000836212507066)
(6.73454462238e-17 0.00158184779464 0.000676025276608)
(0 0.00156135597565 0.000512628045978)
(0 0.00152983083719 0.000348963007962)
(0 0.00147688709775 0.00018791657559)
(0 0.00138903563371 3.21860717735e-05)
(0 0.0012490800615 -0.000115833410429)
(4.46403117417e-17 0.00103525271687 -0.0002541345073)
(0 0.00071995847161 -0.000381150639334)
(4.9039219036e-17 0.00026794557935 -0.000495774697832)
(0 -0.000366342284932 -0.000597344006911)
(5.38715996826e-17 -0.00124255852485 -0.000685593801011)
(0 -0.00243979407925 -0.000760581469966)
(5.91801686369e-17 -0.0040638777629 -0.000822581386124)
(0 -0.00625678065295 -0.000871943891972)
(0 -0.00920714164841 -0.000908899486595)
(-3.40698869512e-17 -0.0131573965907 -0.000933265926757)
(0 -0.0183932124332 -0.000943975918976)
(0 -0.0251766265678 -0.000938288343563)
(0 -0.0335341314076 -0.000910538541138)
(0 -0.0427538404223 -0.000850648995811)
(-2.15467371244e-17 -0.0505851280408 -0.000744440680796)
(0 -0.0530290643327 -0.00058229492928)
(-5.91749430173e-18 -0.0467507541704 -0.000381690793952)
(0 -0.0332369389151 -0.00019701110374)
(0 -0.0185029696589 -7.60438656557e-05)
(0 -0.00764911215802 -2.00574701021e-05)
(0 -0.00136816540135 -3.36689673014e-06)
(0 -0.00129840852023 -5.12818766938e-06)
(0 0.000187480885428 0.00222630320164)
(0 0.000546682128106 0.00220781960278)
(0 0.000869818480674 0.00217603916573)
(0 0.00115011286611 0.0021368118326)
(0 0.00138485136015 0.00209531404559)
(0 0.00157422782272 0.0020553083892)
(0 0.00172026582119 0.00201891888252)
(0 0.00182601972438 0.00198673460611)
(0 0.00189507976146 0.00195807263531)
(0 0.00193131527017 0.00193129098646)
(0 0.00193876845685 0.00190409569818)
(0 0.00192162297896 0.00187381988629)
(0 0.00188419311483 0.00183766940323)
(4.62426728657e-17 0.00183089894551 0.00179293604703)
(0 0.00176620773705 0.00173718028901)
(0 0.00169453192852 0.00166838439515)
(0 0.00162008099389 0.00158507528316)
(0 0.00154666910575 0.00148641524571)
(2.92451430096e-17 0.00147748367495 0.00137225809293)
(6.13044369937e-17 0.00141482178704 0.00124316842795)
(0 0.00135980232825 0.00110040267514)
(6.73454462285e-17 0.00131206088449 0.000945852055976)
(0 0.00126943185398 0.000781949875262)
(0 0.0012276170263 0.000611548019639)
(3.8770618473e-17 0.00117983144493 0.00043777019721)
(0 0.00111640498465 0.000263851795089)
(0 0.00102430093503 9.29778744266e-05)
(0 0.000886490038544 -7.18686023209e-05)
(0 0.000681088462132 -0.000228036899758)
(0 0.000380129006799 -0.000373307507859)
(0 -5.2216332371e-05 -0.000505953357255)
(0 -0.000662210028659 -0.000624759757739)
(0 -0.00151024465558 -0.000729002254263)
(0 -0.00267605822869 -0.000818382856477)
(0 -0.00426586291871 -0.000892923677466)
(0 -0.00642148794956 -0.000952811158122)
(0 -0.00933046219989 -0.000998170757608)
(0 -0.0132323406374 -0.00102872623351)
(3.7427172518e-17 -0.0184066743029 -0.00104325311754)
(0 -0.0251037096463 -0.00103867648201)
(0 -0.0333296808682 -0.00100866297759)
(0 -0.0423463075279 -0.000941993531416)
(0 -0.0498960308787 -0.000823087306292)
(0 -0.0520571145719 -0.000642003687151)
(6.20220349908e-18 -0.0456755500663 -0.000419394876287)
(0 -0.0323487027595 -0.000215877573194)
(0 -0.0179668878683 -8.3210817401e-05)
(0 -0.00741947027731 -2.19412597608e-05)
(0 -0.00131964774134 -3.69303168936e-06)
(0 -0.00126827644239 -5.68298634202e-06)
(0 0.000180585171425 0.00232636109814)
(0 0.000527315202687 0.00230244104759)
(0 0.000841133514194 0.00226098141646)
(0 0.00111582987817 0.00220921616242)
(0 0.00134846269943 0.00215374810378)
(0 0.00153846860685 0.00209968798014)
(0 0.001686839891 0.00205034045395)
(0 0.00179551202151 0.00200725248696)
(0 0.00186698301996 0.00197045063172)
(0 0.00190411971577 0.00193874940402)
(0 0.00191008595359 0.00191006669779)
(0 0.00188833330844 0.00188171855057)
(0 0.00184260901898 0.00185068512594)
(0 0.00177695006202 0.00181384800719)
(0 0.00169564362684 0.00176820089175)
(-2.66218003959e-17 0.00160314252076 0.00171103493459)
(0 0.00150392995176 0.00164009822916)
(0 0.00140233242408 0.0015537272498)
(0 0.00130228270028 0.00145094691507)
(0 0.00120703720654 0.00133153546163)
(0 0.001118853866 0.00119605058958)
(0 0.00103863693743 0.00104581436195)
(3.69908717009e-17 0.000965554524702 0.000882856091943)
(0 0.000896631260114 0.000709814872852)
(0 0.000826312356652 0.000529806319433)
(0 0.000745984666229 0.00034626125838)
(0 0.000643424329388 0.000162747071989)
(0 0.0005021177939 -1.72152761961e-05)
(0 0.000300371830048 -0.000190324351997)
(0 1.00868155812e-05 -0.000353647598176)
(0 -0.000404986139995 -0.000504734817783)
(0 -0.000991751172532 -0.000641686594537)
(0 -0.00181136157382 -0.000763171705086)
(0 -0.00294429386599 -0.000868389992835)
(0 -0.00449727790882 -0.000956977082917)
(3.40698869519e-17 -0.00661213981945 -0.00102884240103)
(-3.5709095988e-17 -0.0094753877484 -0.00108391854421)
(0 -0.0133236571315 -0.00112177242734)
(0 -0.0184301000755 -0.00114098010346)
(0 -0.0250324959598 -0.00113810365873)
(0 -0.0331157025715 -0.00110611869553)
(0 -0.0419141002911 -0.00103265733727)
(0 -0.0491648186513 -0.000900798293293)
(0 -0.0510305934421 -0.000700510286422)
(6.50061094789e-18 -0.044547215785 -0.000455959045596)
(0 -0.0314218473806 -0.000234019462267)
(0 -0.0174095407463 -9.00730419474e-05)
(0 -0.00718112942383 -2.37434712087e-05)
(0 -0.00126955097775 -4.00831742455e-06)
(0 -0.00123671096881 -6.23780109964e-06)
(0 0.000172212989161 0.00242283278298)
(-2.89042227913e-17 0.000503680358509 0.00239297230534)
(0 0.000805795770746 0.00234081641612)
(0 0.00107307500286 0.00227495049479)
(0 0.00130248318857 0.00220339580331)
(-3.4881403348e-17 0.00149279374518 0.00213265269542)
(0 0.0016440125199 0.00206730082204)
(0 0.00175695192052 0.00200998277022)
(0 0.00183296959427 0.00196160129751)
(0 0.00187384326113 0.00192160876749)
(0 0.00188173761272 0.00188831854042)
(0 0.00185922014532 0.00185920523542)
(0 0.00180929058625 0.00183118242092)
(0 0.00173539747851 0.00180085644117)
(-2.66218003954e-17 0.00164142319009 0.0017647583109)
(0 0.00153162462296 0.00171955529763)
(0 0.0014105214847 0.0016622420741)
(0 0.00128272759811 0.00159030933592)
(0 0.00115272365724 0.0015018861253)
(0 0.00102457230347 0.00139585104017)
(0 0.00090157842211 0.00127190713599)
(-3.69908717029e-17 0.00078589895519 0.00113061569105)
(0 0.000678106934363 0.000973385124502)
(0 0.000576713150808 0.000802413253339)
(0 0.000477644936593 0.000620583757487)
(0 0.000373673576062 0.000431321060423)
(0 0.000253768265906 0.000238411605181)
(0 0.000102333444975 4.58032620867e-05)
(0 -0.000101744313247 -0.000142602242191)
(5.38715996827e-17 -0.000386355909033 -0.000323147026334)
(0 -0.000787907710232 -0.000492587759429)
(0 -0.00135377968886 -0.00064822370127)
(0 -0.00214582436747 -0.00078796916863)
(-6.5011850036e-17 -0.00324529168043 -0.000910360392931)
(0 -0.00475953737591 -0.00101448784495)
(0 -0.00683052713566 -0.00109984146602)
(0 -0.00964386823369 -0.00116604340238)
(0 -0.0134332908198 -0.00121241412975)
(0 -0.0184653391563 -0.00123726612272)
(0 -0.0249647550685 -0.00123675296491)
(0 -0.0328940769439 -0.00120312566451)
(2.36699772067e-17 -0.0414597188898 -0.0011228551118)
(0 -0.048395552468 -0.000977746832501)
(0 -0.0499559840756 -0.000757932764774)
(0 -0.0433739661947 -0.000491456362596)
(0 -0.0304638272613 -0.00025147658517)
(-1.87119338442e-18 -0.0168356545634 -9.66468225431e-05)
(0 -0.0069361572613 -2.54685498732e-05)
(0 -0.001218353493 -4.31373328446e-06)
(0 -0.00120393364944 -6.79543811462e-06)
(0 0.000162393186316 0.00251853788492)
(-3.02948955405e-17 0.000475822282973 0.00248244375224)
(0 0.000763760396547 0.00241893465986)
(0 0.00102158364375 0.00233783826666)
(0 0.00124630628441 0.00224850700526)
(-3.65596569873e-17 0.00143616342014 0.00215880037693)
(0 0.00159026231876 0.00207460977273)
(0 0.0017083350813 0.00199977102963)
(0 0.00179059672497 0.00193620726093)
(0 0.0018376918893 0.00188418329217)
(0 0.00185070373086 0.00184259838015)
(-4.846755279e-17 0.00183119719545 0.00180927956239)
(0 0.00178127168001 0.00178126056133)
(0 0.00170360227153 0.00175504296998)
(5.58053172993e-17 0.00160145284075 0.00172684105182)
(0 0.00147864780785 0.00169281199464)
(6.13044369944e-17 0.00133949240505 0.00164927200403)
(0 0.00118863386707 0.00159289651317)
(-3.36727231136e-17 0.00103085833531 0.00152090074822)
(0 0.00087082045291 0.00143119530932)
(0 0.00071270462394 0.00132251045164)
(0 0.000559818627688 0.00119448244578)
(0 0.000414121422276 0.00104769581365)
(0 0.000275687035998 0.00088367641083)
(0 0.000142104543385 0.00070483236643)
(4.67880970496e-17 7.80892529105e-06 0.000514342827908)
(4.90392190387e-17 -0.000136672742865 0.000315998306817)
(0 -0.000305593186938 0.000114000925093)
(-5.38715996865e-17 -0.000519036361643 -8.72623833126e-05)
(0 -0.000804250861779 -0.000283456391817)
(-5.91801686362e-17 -0.00119742394851 -0.000470523450983)
(0 -0.00174612637322 -0.000644877148925)
(0 -0.00251273857254 -0.000803542991336)
(0 -0.00357923176027 -0.000944227352682)
(0 -0.0050536406492 -0.00106529737841)
(0 -0.00707819374666 -0.00116565197397)
(-3.92279110868e-17 -0.00983773245311 -0.00124445218307)
(0 -0.0135631413984 -0.00130065032749)
(0 -0.0185142209967 -0.00133220347977)
(-2.25834181772e-17 -0.024902212397 -0.00133478957343)
(0 -0.0326665678107 -0.00129988647692)
(-2.48088139958e-17 -0.0409854238225 -0.00121278452034)
(0 -0.0475918722469 -0.0010540900505)
(0 -0.0488391103298 -0.000814376810267)
(0 -0.0421631595879 -0.000525953162729)
(3.74238676888e-18 -0.0294812730362 -0.000268286065333)
(0 -0.0162494064068 -0.000102947560838)
(0 -0.00668637539916 -2.71207254154e-05)
(6.73276079448e-20 -0.00116647871637 -4.61023880033e-06)
(0 -0.00117013634392 -7.35876469725e-06)
(0 0.000151225137848 0.00261516626574)
(0 0.000443990038465 0.002572779997)
(0 0.000715302004836 0.00249767322236)
(0 0.000961498134524 0.00240073610552)
(0 0.00117978400145 0.00229248824833)
(0 0.00136800643272 0.00218204323188)
(0 0.00152450260841 0.00207657593857)
(0 0.00164801463501 0.00198116263281)
(0 0.00173766141196 0.00189885697736)
(-4.62426728657e-17 0.00179295749483 0.0018308930459)
(0 0.00181386598899 0.00177694316037)
(0 0.00180087090388 0.00173539002013)
(0 0.00175505399819 0.00170359455988)
(0 0.00167816154249 0.00167815377139)
(0 0.00157264725008 0.00165514867463)
(3.06522184969e-17 0.00144167868329 0.00163038419632)
(0 0.00128909565628 0.00159962182758)
(0 0.00111931052384 0.00155880393968)
(0 0.000937141748889 0.00150426638581)
(0 0.000747573758051 0.00143293399523)
(0 0.000555437748907 0.00134249203569)
(0 0.000365009701409 0.00123152578332)
(0 0.000179523180763 0.00109962005277)
(4.46403117391e-17 5.95234416589e-07 0.000947410954397)
(0 -0.000172436857394 0.000776583337762)
(0 -0.000343273140216 0.000589809539481)
(5.13986495608e-17 -0.000519515114639 0.000390628288553)
(0 -0.000713662466241 0.000183267071816)
(0 -0.000944292109858 -2.75832639593e-05)
(0 -0.00123750644884 -0.000237026844105)
(0 -0.00162879148679 -0.000440233367979)
(0 -0.00216549630218 -0.000632695696454)
(0 -0.00291022616558 -0.000810446470781)
(0 -0.00394550345452 -0.000970205170337)
(0 -0.00538000600604 -0.00110942706883)
(0 -0.00735629835434 -0.00122622302318)
(0 -0.0100585830472 -0.00131910798173)
(0 -0.0137149908181 -0.0013865075722)
(0 -0.0185785102341 -0.00142589758224)
(0 -0.0248465270909 -0.00143238521188)
(0 -0.0324348203638 -0.0013966066519)
(2.60024437906e-17 -0.0404932561322 -0.00130264275918)
(-1.36267514286e-17 -0.0467570447902 -0.00112998172107)