/*--------------------------------*- C++ -*----------------------------------*\
| =========                 |                                                 |
| \\      /  F ield         | OpenFOAM: The Open Source CFD Toolbox           |
|  \\    /   O peration     | Version:  3.0.1                                 |
|   \\  /    A nd           | Web:      www.OpenFOAM.org                      |
|    \\/     M anipulation  |                                                 |
\*---------------------------------------------------------------------------*/
FoamFile
{
    version     2.0;
    format      ascii;
    class       volTensorField;
    location    "50000";
    object      grad(U);
}
// * * * * * * * * * * * * * * * * * * * * * * * * * * * * * * * * * * * * * //

dimensions      [0 0 -1 0 0 0 0];

internalField   nonuniform List<tensor> 
2500
(
(0 0 0 -0.00829301378298 1.43212915167e-11 8.9896075255e-14 -0.0082927592725 -8.80994451923e-14 -1.4335307183e-11)
(0 0 0 -0.0243738074334 1.39860355704e-11 2.60008523083e-13 -0.00830515004435 -2.58217623985e-13 -1.39860344873e-11)
(0 0 0 -0.0394113414153 1.33627044091e-11 4.08310611665e-13 -0.00832974858618 -4.19014197724e-13 -1.33585223078e-11)
(0 0 0 -0.0534126105175 1.25130814721e-11 5.4178482793e-13 -0.00836632181688 -5.63013556429e-13 -1.25132357521e-11)
(0 0 0 -0.066505842003 1.14869977112e-11 6.59142557127e-13 -0.00841336696692 -6.91259226248e-13 -1.14896451916e-11)
(1.06506009765e-14 7.74933212705e-26 -4.84333257941e-27 -0.078891229662 1.03318407293e-11 7.62438490194e-13 -0.00846785791496 -8.02051542365e-13 -1.03417277861e-11)
(1.11630347701e-14 0 0 -0.0907979671807 9.0886886115e-12 8.52262724612e-13 -0.00852562092307 -8.97514594512e-13 -9.0923628951e-12)
(1.17001233594e-14 0 -2.66030005136e-27 -0.102457281736 7.77765678652e-12 9.31939431582e-13 -0.00858190853076 -9.75319135607e-13 -7.78475123135e-12)
(0 0 0 -0.114089458573 6.4282204255e-12 1.00247468178e-12 -0.0086319246404 -1.03755437661e-12 -6.42955809904e-12)
(0 0 0 -0.125899705316 5.05780144297e-12 1.05714948422e-12 -0.00867122115744 -1.09241044696e-12 -5.05656625074e-12)
(0 0 0 -0.138078598934 3.67964306896e-12 1.10645146707e-12 -0.00869596792001 -1.13093654581e-12 -3.67926808134e-12)
(0 0 0 -0.150804544243 2.30639507189e-12 1.14678772308e-12 -0.00870311973712 -1.15872308745e-12 -2.31006450342e-12)
(7.39948103469e-15 5.38383103753e-26 -4.20611799807e-28 -0.164246968667 9.54240460532e-13 1.18029166441e-12 -0.00869050355841 -1.17464643019e-12 -9.61823035055e-13)
(0 0 0 -0.178569743375 -3.60169587973e-13 1.20866783255e-12 -0.00865684244474 -1.17891262002e-12 3.61152396987e-13)
(0 0 0 -0.193934709894 -1.64547597051e-12 1.22998111188e-12 -0.00860172774534 -1.17460101321e-12 1.64732706556e-12)
(0 0 0 -0.210505367975 -2.89217065592e-12 1.24558665908e-12 -0.0085255494649 -1.1619875715e-12 2.89366620346e-12)
(0 0 0 -0.228450851537 -4.09206663171e-12 1.25520176382e-12 -0.00842939371515 -1.1424930501e-12 4.09427590703e-12)
(0 0 0 -0.247950346986 -5.24510500834e-12 1.25993208973e-12 -0.00831491727482 -1.11630744302e-12 5.24646751197e-12)
(0 0 0 -0.269198122811 -6.34703044899e-12 1.25949746078e-12 -0.00818420899949 -1.08473674056e-12 6.34766342693e-12)
(0 0 0 -0.292409362819 -7.39429259669e-12 1.25392303878e-12 -0.00803964829693 -1.04871614945e-12 7.39584335881e-12)
(0 0 0 -0.317827033987 -8.38763246534e-12 1.24331989285e-12 -0.00788376918919 -1.00889636721e-12 8.38954304381e-12)
(0 0 0 -0.345730084119 -9.3267539725e-12 1.22815913272e-12 -0.00771913732301 -9.65421091512e-13 9.32708109228e-12)
(0 0 0 -0.376443361978 -1.02089423022e-11 1.20717298833e-12 -0.00754824488021 -9.20054342188e-13 1.02085294606e-11)
(0 0 0 -0.410349792089 -1.10347136336e-11 1.17987444717e-12 -0.00737342642315 -8.73497812637e-13 1.10334989436e-11)
(0 0 0 -0.447905535217 -1.18011346247e-11 1.1463973925e-12 -0.0071967961899 -8.25598865247e-13 1.18008580756e-11)
(0 0 0 -0.489659143398 -1.25099916021e-11 1.10634871603e-12 -0.0070202062338 -7.76617760632e-13 1.25101640977e-11)
(0 0 0 -0.53627611142 -1.3163022949e-11 1.05859473567e-12 -0.00684522274528 -7.2730748617e-13 1.31613048078e-11)
(0 0 0 -0.588570787181 -1.37554812169e-11 1.00273267251e-12 -0.00667311799437 -6.77412745099e-13 1.37526796867e-11)
(0 0 0 -0.647548409731 -1.42858295999e-11 9.37515325996e-13 -0.00650487405189 -6.2728989717e-13 1.42839469289e-11)
(0 0 0 -0.714461217158 -1.47546508807e-11 8.60544494707e-13 -0.00634119490079 -5.78106990793e-13 1.4753890207e-11)
(0 0 0 -0.790884286092 -1.51589122183e-11 7.69469007395e-13 -0.00618252340829 -5.30473149881e-13 1.51607211348e-11)
(0 0 0 -0.878819296935 -1.54988950425e-11 6.62000982212e-13 -0.00602905947774 -4.8429239127e-13 1.55022368231e-11)
(0 0 0 -0.980838137716 -1.57723624301e-11 5.35398548978e-13 -0.00588077588123 -4.39232342907e-13 1.57754386533e-11)
(0 0 0 -1.10028363369 -1.59739781576e-11 3.85098088338e-13 -0.00573742694222 -3.95779760474e-13 1.5976834636e-11)
(0 0 0 -1.24155213671 -1.61008998476e-11 2.05775643299e-13 -0.00559854381606 -3.53816649047e-13 1.61015330984e-11)
(0 0 0 -1.41049191535 -1.61433914978e-11 -9.67664294932e-15 -0.00546340454936 -3.13085201551e-13 1.61435849011e-11)
(0 0 0 -1.61495894854 -1.60937961296e-11 -2.72518497112e-13 -0.00533095803339 -2.7477615149e-13 1.60949228704e-11)
(0 0 0 -1.86556422487 -1.59441661824e-11 -5.95615928734e-13 -0.00519965787346 -2.37906839316e-13 1.59447709687e-11)
(0 0 0 -2.17657765985 -1.56788523015e-11 -9.98739859843e-13 -0.00506711473871 -2.03031100858e-13 1.56793112443e-11)
(0 0 0 -2.56667971129 -1.52797112778e-11 -1.50859466966e-12 -0.00492937031451 -1.70744800598e-13 1.52794512059e-11)
(0 0 0 -3.0583742691 -1.47197374673e-11 -2.15847276132e-12 -0.00477938377282 -1.40496080226e-13 1.472046783e-11)
(0 0 0 -3.67255641669 -1.39688131351e-11 -2.98579919141e-12 -0.00460399410421 -1.12785973e-13 1.39706951062e-11)
(0 0 0 -4.41077565966 -1.29932144101e-11 -4.01172088703e-12 -0.00437871987716 -8.77243879472e-14 1.29936428095e-11)
(0 0 0 -5.22038194256 -1.17618149103e-11 -5.1971652795e-12 -0.00406324352756 -6.55658878855e-14 1.17577955973e-11)
(0 0 0 -5.97249128124 -1.0267447397e-11 -6.40062719034e-12 -0.00361247197594 -4.63130084408e-14 1.02591550518e-11)
(0 0 0 -6.52369244608 -8.54933018147e-12 -7.43180808817e-12 -0.00301874257911 -3.03216558268e-14 8.54483200939e-12)
(0 0 0 -6.83412891134 -6.70032407007e-12 -8.19831052259e-12 -0.0023377870212 -1.78215299384e-14 6.69967103268e-12)
(0 0 0 -6.98179297152 -4.78383176765e-12 -8.75609761187e-12 -0.00164033608318 -8.7762274552e-15 4.79872998438e-12)
(0 0 0 -7.06213066254 -2.83092303868e-12 -9.2067195493e-12 -0.00096342739418 -2.9665922195e-15 2.88333360477e-12)
(0 0 0 -7.12441561781 -1.0327694444e-12 -9.61320371095e-12 -0.000316118094582 -2.00063522147e-16 9.71732952218e-13)
(0 0 0 -0.00830540455483 1.39790186105e-11 2.63503256967e-13 -0.0243731399683 -2.54680376815e-13 -1.39869837171e-11)
(0 0 0 -0.02441198026 1.36473843908e-11 7.58903497167e-13 -0.0244113107973 -7.49786219118e-13 -1.36484680088e-11)
(0 0 0 -0.0394773006687 1.30359821883e-11 1.1967185078e-12 -0.0244867597359 -1.21178861908e-12 -1.3039251334e-11)
(0 0 0 -0.0535069552854 1.2207230778e-11 1.59022506683e-12 -0.0245985333312 -1.62641262429e-12 -1.22087284963e-11)
(0 0 0 -0.0666257688474 1.12056328853e-11 1.93497080713e-12 -0.0247421354797 -1.99698041198e-12 -1.12109073448e-11)
(0 0 -1.01527209791e-26 -0.0790300507793 1.0077390438e-11 2.23812486272e-12 -0.0249087548798 -2.31812849112e-12 -1.00826619006e-11)
(0 0 0 -0.0909456501441 8.86479530755e-12 2.50064133435e-12 -0.0250862805461 -2.59567700334e-12 -8.86420378526e-12)
(-1.22630529642e-14 -4.46127267939e-26 1.11531816985e-26 -0.102601400016 7.58803483513e-12 2.72739119983e-12 -0.025260901727 -2.82915879504e-12 -7.58019356139e-12)
(0 0 0 -0.114216185154 6.26185528401e-12 2.92613278021e-12 -0.0254185914524 -3.01780786404e-12 -6.2628589326e-12)
(1.3471468208e-14 4.90089158412e-26 0 -0.125994708642 4.91910495895e-12 3.09326571913e-12 -0.0255462412923 -3.17027150418e-12 -4.92400484826e-12)
(0 0 0 -0.138127814734 3.57638159854e-12 3.23720461545e-12 -0.0256324452016 -3.28321629993e-12 -3.57935371353e-12)
(1.47989620691e-14 5.38383103745e-26 0 -0.150794830916 2.23523974538e-12 3.35716300506e-12 -0.0256679971549 -3.3621599898e-12 -2.24503951537e-12)
(1.55109865167e-14 5.6428640225e-26 -8.81697503515e-28 -0.164166653678 9.20041801007e-13 3.45980814136e-12 -0.0256461654509 -3.40483286986e-12 -9.2788764149e-13)
(0 0 0 -0.178409058477 -3.59725180502e-13 3.54118259901e-12 -0.0255627887782 -3.41979309503e-12 3.61523037241e-13)
(0 0 0 -0.193686107528 -1.61318094583e-12 3.60200846041e-12 -0.0254162255307 -3.41002858485e-12 1.61538226972e-12)
(0 0 0 -0.210163710962 -2.82836900097e-12 3.64743691331e-12 -0.0252071810151 -3.37471644609e-12 2.82905023546e-12)
(0 0 0 -0.228013472849 -3.99707933341e-12 3.67570084988e-12 -0.0249384367083 -3.31912550125e-12 3.99882360567e-12)
(0 0 0 -0.247416984042 -5.11938506124e-12 3.68960094573e-12 -0.0246145071786 -3.24400485677e-12 5.12108547504e-12)
(0 0 0 -0.268570739304 -6.192922647e-12 3.68848254576e-12 -0.0242412519576 -3.15309059354e-12 6.19337507555e-12)
(0 0 0 -0.291691878291 -7.21312433277e-12 3.6725138218e-12 -0.0238254704944 -3.04883056804e-12 7.21382137348e-12)
(0 0 0 -0.317024985778 -8.1791133913e-12 3.64009506978e-12 -0.0233745057185 -2.93518493316e-12 8.18152415763e-12)
(0 0 0 -0.34485024853 -9.09377173324e-12 3.59255032318e-12 -0.0228958783197 -2.81233916866e-12 9.09501420144e-12)
(0 0 0 -0.375493360475 -9.9563309221e-12 3.53252291329e-12 -0.022396968226 -2.67917154659e-12 9.95375829392e-12)
(6.50233326841e-15 4.73107012543e-26 1.18276753136e-26 -0.409337704594 -1.07626467666e-11 3.45535753286e-12 -0.0218847533875 -2.54106712774e-12 1.07572142664e-11)
(0 0 0 -0.446839538033 -1.15086789789e-11 3.35860983428e-12 -0.0213656103424 -2.40052089555e-12 1.1505501358e-11)
(0 0 0 -0.488547183028 -1.21990567107e-11 3.24341346238e-12 -0.0208451751274 -2.25590564101e-12 1.21974232545e-11)
(0 0 0 -0.535125620218 -1.28340791073e-11 3.10470606935e-12 -0.020328259627 -2.11123404645e-12 1.28326429906e-11)
(0 0 0 -0.587388441325 -1.34079163736e-11 2.9394048916e-12 -0.019818814968 -1.9674385407e-12 1.3410332746e-11)
(-8.22451015649e-15 -2.9920593648e-26 -1.4960296824e-26 -0.646339924087 -1.39242347854e-11 2.7467199648e-12 -0.0193199325875 -1.82266136288e-12 1.39293383659e-11)
(0 -3.13601671825e-26 -1.56800835912e-26 -0.713231167791 -1.43852144324e-11 2.52018000241e-12 -0.0188338722195 -1.6796359254e-12 1.43880303219e-11)
(0 0 0 -0.789635944341 -1.47837033788e-11 2.25379483663e-12 -0.0183621064966 -1.53930255432e-12 1.47851093106e-11)
(0 0 0 -0.877554451726 -1.51163939931e-11 1.93942988837e-12 -0.0179053712963 -1.4029803411e-12 1.511830491e-11)
(0 0 0 -0.979556868717 -1.53834991484e-11 1.56770922919e-12 -0.0174637105454 -1.27097208056e-12 1.53850063858e-11)
(0 0 0 -1.09898397276 -1.55806591787e-11 1.12648250988e-12 -0.0170365015389 -1.14344621891e-12 1.55815153918e-11)
(0 0 0 -1.24022950181 -1.57017662467e-11 5.99414930645e-13 -0.0166224407077 -1.02074930271e-12 1.57032906818e-11)
(0 0 0 -1.40913809245 -1.57436876047e-11 -3.50033591722e-14 -0.0162194558628 -9.02760209787e-13 1.57441204694e-11)
(0 0 0 -1.61356015921 -1.56952238453e-11 -8.07161031192e-13 -0.0158244810639 -7.90372480648e-13 1.56960823386e-11)
(-6.277020037e-15 -1.14178329332e-26 0 -1.86409728624 -1.55455763735e-11 -1.75728174538e-12 -0.0154329640675 -6.83209262635e-13 1.55490846327e-11)
(0 0 0 -2.17500205131 -1.5287870689e-11 -2.94215173425e-12 -0.0150378337136 -5.81934624542e-13 1.52886771185e-11)
(0 0 0 -2.56492075677 -1.48980967474e-11 -4.43922591487e-12 -0.0146273421504 -4.87664851636e-13 1.48968711975e-11)
(0 0 0 -3.05628774263 -1.43491294444e-11 -6.34654074387e-12 -0.014180566775 -4.00062931229e-13 1.43492474977e-11)
(0 0 0 -3.66986054601 -1.36151912252e-11 -8.77215603447e-12 -0.0136583897546 -3.19955819299e-13 1.3615152125e-11)
(3.96976077014e-15 3.61047638774e-27 1.4441905551e-26 -4.40695837869 -1.26616577754e-11 -1.17755688866e-11 -0.0129880903772 -2.47283233367e-13 1.26591515473e-11)
(0 0 0 -5.21471128053 -1.14571165788e-11 -1.52400490096e-11 -0.0120500956519 -1.82981631316e-13 1.14511185301e-11)
(0 0 0 -5.96439700704 -9.99579229101e-12 -1.87511281693e-11 -0.0107111158814 -1.28339862888e-13 9.98802622272e-12)
(0 0 0 -6.5133557068 -8.31932046693e-12 -2.17526506538e-11 -0.00894924035789 -8.33175021481e-14 8.31648971054e-12)
(0 0 0 -6.8224287816 -6.51818319945e-12 -2.39777113101e-11 -0.00692993839322 -4.84734637347e-14 6.51909084342e-12)
(0 0 0 -6.96957364333 -4.65238728309e-12 -2.55915544359e-11 -0.00486235816719 -2.34576570755e-14 4.66845977946e-12)
(0 0 0 -7.04979282634 -2.75164270982e-12 -2.68902242228e-11 -0.00285582696728 -7.70054213694e-15 2.80448848348e-12)
(0 0 0 -7.11206241968 -1.00246468701e-12 -2.80551708377e-11 -0.000937049221634 -4.00305432806e-16 9.44884692066e-13)
(0 0 0 -0.00833000119071 1.33583769191e-11 4.20841736157e-13 -0.0394104854899 -4.06279611723e-13 -1.33549066577e-11)
(0 0 0 -0.0244874272926 1.30361093049e-11 1.21510303993e-12 -0.0394764362539 -1.19318027733e-12 -1.30336277998e-11)
(0 0 0 -0.0396069695553 1.24511311156e-11 1.92420066983e-12 -0.0396060984826 -1.92072532789e-12 -1.24525859167e-11)
(0 0 0 -0.0536918456106 1.16573847154e-11 2.55654245941e-12 -0.0397974051561 -2.5794011847e-12 -1.16566521625e-11)
(0 0 0 -0.0668609448665 1.06972294114e-11 3.11291304623e-12 -0.0400430742909 -3.16590456128e-12 -1.07015776935e-11)
(0 0 0 -0.0793036836577 9.6154483871e-12 3.59966207044e-12 -0.0403292686014 -3.67791659335e-12 -9.61919361413e-12)
(1.22630529644e-14 4.46127267947e-26 0 -0.0912398536761 8.44814673179e-12 4.02244407613e-12 -0.0406369889794 -4.1186199974e-12 -8.45308375479e-12)
(0 0 0 -0.102893818989 7.22353740402e-12 4.38485130954e-12 -0.0409444218754 -4.49362927524e-12 -7.22182486079e-12)
(0 0 0 -0.114481695834 5.95864175702e-12 4.69751649795e-12 -0.0412291741952 -4.8011728807e-12 -5.9587095664e-12)
(0 0 0 -0.126206978208 4.67510012456e-12 4.96922878076e-12 -0.0414700211365 -5.04151906989e-12 -4.6752854438e-12)
(0 0 0 -0.138260668235 3.38991485241e-12 5.19926447413e-12 -0.0416481462651 -5.22374765227e-12 -3.39016165341e-12)
(0 0 0 -0.150823437856 2.11435707465e-12 5.39223202389e-12 -0.0417479620535 -5.35051381309e-12 -2.11396926213e-12)
(0 0 0 -0.164068545453 8.59314209787e-13 5.55431498807e-12 -0.0417576013323 -5.42310265241e-12 -8.57460691115e-13)
(0 0 0 -0.178164971995 -3.68073755573e-13 5.68153803008e-12 -0.0416691439478 -5.45259302572e-12 3.69671728862e-13)
(0 0 0 -0.193280636831 -1.56178482203e-12 5.77820013298e-12 -0.0414786216066 -5.44084681305e-12 1.56357735906e-12)
(0 0 0 -0.209585745725 -2.71686513003e-12 5.84998255254e-12 -0.0411858322722 -5.38860448342e-12 2.71828865007e-12)
(0 0 0 -0.227256409411 -3.82836361557e-12 5.89578991143e-12 -0.0407939940565 -5.3026195085e-12 3.83034101141e-12)
(0 0 0 -0.246478706779 -4.89449584824e-12 5.91673596239e-12 -0.0403092713648 -5.18721820672e-12 4.89751053121e-12)
(0 0 0 -0.267453386348 -5.91536184647e-12 5.91372097529e-12 -0.0397402108944 -5.04626631266e-12 5.91566697914e-12)
(0 0 0 -0.290401420107 -6.88941763113e-12 5.88809668141e-12 -0.039097127689 -4.88267954623e-12 6.8853096695e-12)
(0 8.61336903001e-26 2.1533422575e-26 -0.315570656629 -7.81327576449e-12 5.83883475792e-12 -0.0383914816311 -4.70101247724e-12 7.80381173212e-12)
(0 0 0 -0.343243877871 -8.675214244e-12 5.76548323048e-12 -0.0376352812855 -4.50445848553e-12 8.67344095554e-12)
(-6.50233326831e-15 -4.73107012535e-26 -2.36553506268e-26 -0.373748651725 -9.48600524294e-12 5.66734168607e-12 -0.0368405454338 -4.29564310673e-12 9.49118621935e-12)
(0 0 0 -0.407469505937 -1.02565488936e-11 5.54376759448e-12 -0.0360188438415 -4.07635248749e-12 1.02548861277e-11)
(0 0 0 -0.444863141474 -1.09663374592e-11 5.39108777535e-12 -0.0351809300148 -3.85060413467e-12 1.09672876638e-11)
(-7.48675661029e-15 -5.44733237642e-26 -2.72366618821e-26 -0.486477678767 -1.16226617234e-11 5.20567367258e-12 -0.0343364692025 -3.62116008436e-12 1.16263687227e-11)
(7.84696793529e-15 5.7094206097e-26 2.85471030485e-26 -0.532977322083 -1.22355231655e-11 4.98486097185e-12 -0.033493857794 -3.38884223852e-12 1.22306790576e-11)
(0 0 0 -0.585174388149 -1.27827335018e-11 4.72298191339e-12 -0.0326601238926 -3.1562432731e-12 1.27809190768e-11)
(-8.62021711701e-15 -3.13601671842e-26 0 -0.644071452091 -1.32693025387e-11 4.41299608038e-12 -0.031840895505 -2.9258901889e-12 1.32758752188e-11)
(-9.0349627791e-15 -3.28690031132e-26 -3.28690031132e-26 -0.710917537255 -1.37059191321e-11 4.04820732522e-12 -0.0310404200395 -2.69822777334e-12 1.37135291748e-11)
(-9.46966315525e-15 -3.44504338691e-26 -3.44504338691e-26 -0.787283993618 -1.40859799433e-11 3.6195306165e-12 -0.0302616178243 -2.47414111835e-12 1.40926661407e-11)
(0 0 0 -0.875168234562 -1.44081712004e-11 3.11453583211e-12 -0.0295061516916 -2.25517716281e-12 1.44108455443e-11)
(0 0 0 -0.97713720544 -1.46666166173e-11 2.5183099046e-12 -0.0287744927725 -2.04181825789e-12 1.46658474762e-11)
(0 0 0 -1.09652779563 -1.48566466064e-11 1.81033266489e-12 -0.028065958625 -1.83541688463e-12 1.48539661635e-11)
(5.7139599027e-15 2.07872650306e-26 0 -1.23772877733 -1.49743311881e-11 9.64150402338e-13 -0.0273786892315 -1.63675631093e-12 1.49709568941e-11)
(0 0 0 -1.40657789682 -1.50133525328e-11 -5.57229342296e-14 -0.0267095042798 -1.44660500437e-12 1.50107506554e-11)
(0 0 0 -1.61091503318 -1.49650627418e-11 -1.29582257649e-12 -0.0260535343551 -1.26413495404e-12 1.49657526518e-11)
(-6.57902714414e-15 -1.19671806608e-26 -2.39343613217e-26 -1.86132399894 -1.48210327924e-11 -2.82398041703e-12 -0.0254034114558 -1.09179811118e-12 1.48258629679e-11)
(0 0 0 -2.17202465584 -1.4574734958e-11 -4.7309423322e-12 -0.0247475665032 -9.30189434075e-13 1.45775334192e-11)
(0 0 0 -2.56159892528 -1.4203386211e-11 -7.13826856556e-12 -0.0240666683271 -7.78206350698e-13 1.42032396883e-11)
(0 0 0 -3.05235019347 -1.36795863647e-11 -1.02050467375e-11 -0.023326200855 -6.37545527121e-13 1.36798111278e-11)
(0 0 0 -3.66477744681 -1.29757677636e-11 -1.41029531796e-11 -0.0224616009239 -5.08773592409e-13 1.29778149918e-11)
(-4.16075840263e-15 -3.78418772255e-27 0 -4.39976837661 -1.20603693894e-11 -1.89260941793e-11 -0.0213529832973 -3.92715198835e-13 1.20639194722e-11)
(0 0 0 -5.204044458 -1.09130526919e-11 -2.44827895521e-11 -0.0198038203204 -2.90235878784e-13 1.09096014282e-11)
(0 0 0 -5.94919323325 -9.52211914731e-12 -3.01058373757e-11 -0.0175964553261 -2.02800270127e-13 9.51344748481e-12)
(0 0 0 -6.49396321579 -7.92368414915e-12 -3.49081132568e-11 -0.0146974491019 -1.31291463161e-13 7.9205445796e-12)
(0 0 0 -6.80049427976 -6.20919283289e-12 -3.84680900732e-11 -0.0113793302963 -7.63244980281e-14 6.20915199939e-12)
(0 0 0 -6.94667224327 -4.43365386182e-12 -4.10528445108e-11 -0.00798388713675 -3.69194210721e-14 4.4473351369e-12)
(0 0 0 -7.0266707495 -2.62397745582e-12 -4.3135214548e-11 -0.00468918028462 -1.20795624937e-14 2.67236473266e-12)
(0 0 -1.31452794742e-27 -7.08891166505 -9.57461128152e-13 -4.50040830962e-11 -0.00153860693704 -6.22643552126e-16 9.00727043881e-13)
(0 0 0 -0.00836656851194 1.25115200532e-11 5.63185363911e-13 -0.0534118097492 -5.4153104525e-13 -1.2510900171e-11)
(0 0 0 -0.0245991886262 1.22088624154e-11 1.62667411109e-12 -0.0535061353343 -1.58985054889e-12 -1.2205632868e-11)
(0 0 0 -0.0397982698765 1.165631158e-11 2.58041641637e-12 -0.0536910021422 -2.55548946551e-12 -1.16589017944e-11)
(0 0 0 -0.0539642383081 1.09085926074e-11 3.43154325571e-12 -0.053963383182 -3.43059990962e-12 -1.09094966482e-11)
(0 0 0 -0.067208449762 1.00051066913e-11 4.17911322215e-12 -0.0543139875009 -4.211422433e-12 -1.00073520184e-11)
(0 0 0 -0.0797113158185 8.98629505392e-12 4.83232254942e-12 -0.0547252494787 -4.89458815993e-12 -8.98981297026e-12)
(0 0 0 -0.091684471001 7.88568694459e-12 5.39902666345e-12 -0.0551728049877 -5.48295058572e-12 -7.8889577093e-12)
(0 0 0 -0.103346001583 6.72974618374e-12 5.88700825821e-12 -0.0556282885032 -5.98139985349e-12 -6.7332788357e-12)
(0 0 0 -0.11490783728 5.54030860303e-12 6.30655522179e-12 -0.0560621005375 -6.39200642036e-12 -5.54146988712e-12)
(0 0 0 -0.126571250367 4.33606856441e-12 6.66650457256e-12 -0.0564456365053 -6.71797361465e-12 -4.3345993741e-12)
(0 0 0 -0.138526783946 3.1300004319e-12 6.97152660114e-12 -0.0567529199715 -6.96572568671e-12 -3.12841237213e-12)
(0 0 0 -0.150956224244 1.9342740701e-12 7.22711998372e-12 -0.0569617350376 -7.14015276129e-12 -1.93189320183e-12)
(0 0 0 -0.164035344317 7.59272790425e-13 7.43715124136e-12 -0.0570543640913 -7.24706827655e-12 -7.57308083856e-13)
(0 0 0 -0.177936860348 -3.87592412454e-13 7.60465338184e-12 -0.0570180075675 -7.2926061134e-12 3.87046159698e-13)
(0 0 0 -0.192833440086 -1.49930874556e-12 7.73330314927e-12 -0.0568449329215 -7.28164510624e-12 1.49926282718e-12)
(0 0 0 -0.208900805967 -2.57304367939e-12 7.82643934348e-12 -0.056532384046 -7.21916217598e-12 2.57611632597e-12)
(0 0 0 -0.226321073803 -3.60813914738e-12 7.88647300806e-12 -0.0560822772706 -7.11026862612e-12 3.61017174303e-12)
(0 0 9.80091766795e-27 -0.245286514994 -4.60102780413e-12 7.91254913379e-12 -0.0555007138989 -6.96285322067e-12 4.60143920814e-12)
(0 0 0 -0.266003954977 -5.54799305952e-12 7.90752642879e-12 -0.0547973463793 -6.78021727528e-12 5.54708932045e-12)
(0 0 0 -0.288700043822 -6.44745997797e-12 7.87261047703e-12 -0.053984642287 -6.56682937409e-12 6.44805160412e-12)
(0 0 0 -0.313627666423 -7.3005132051e-12 7.80904820575e-12 -0.0530770946398 -6.32581523648e-12 7.29990864502e-12)
(0 0 0 -0.34107381134 -8.10665848023e-12 7.71546930889e-12 -0.0520904281311 -6.06256666148e-12 8.1055139306e-12)
(0 0 0 -0.371369298701 -8.86351775488e-12 7.58222461815e-12 -0.0510408455761 -5.78903763561e-12 8.86218897237e-12)
(0 0 0 -0.404900893321 -9.57251557901e-12 7.41710812134e-12 -0.0499443522614 -5.49866064849e-12 9.57108139424e-12)
(0 0 0 -0.442126516112 -1.02330252943e-11 7.21624986228e-12 -0.0488161839823 -5.19599012267e-12 1.02310080378e-11)
(0 0 0 -0.483594535556 -1.08428012717e-11 6.96760737467e-12 -0.0476703540586 -4.89171262801e-12 1.08415220366e-11)
(0 0 0 -0.529968510607 -1.14034881539e-11 6.67155284561e-12 -0.0465193222997 -4.582794862e-12 1.1403275518e-11)
(0 0 0 -0.582059315524 -1.19149974969e-11 6.32328400057e-12 -0.0453737800785 -4.2701191906e-12 1.19141467601e-11)
(0 0 3.2869003115e-26 -0.640867383061 -1.23759030375e-11 5.91066600353e-12 -0.0442425372363 -3.95993620859e-12 1.2374005304e-11)
(0 0 0 -0.707638976165 -1.27845628647e-11 5.42377345333e-12 -0.0431324919755 -3.6537403516e-12 1.27812606316e-11)
(0 0 0 -0.78394211361 -1.31385062759e-11 4.85092498667e-12 -0.0420486607665 -3.35210121148e-12 1.31351951735e-11)
(0 0 0 -0.8717702953 -1.34340942709e-11 4.17569334545e-12 -0.0409942430225 -3.05675787448e-12 1.3432779086e-11)
(0 0 0 -0.973685860623 -1.36718144785e-11 3.37795337802e-12 -0.0399706918281 -2.7685296662e-12 1.36716651835e-11)
(0 0 0 -1.09302012091 -1.38495895118e-11 2.43032089634e-12 -0.0389777555062 -2.48912021461e-12 1.38483007908e-11)
(0 0 0 -1.23415470874 -1.39603527149e-11 1.29728401955e-12 -0.0380134403936 -2.21960713048e-12 1.39584624293e-11)
(0 0 0 -1.40291747391 -1.3994457169e-11 -6.91044991757e-14 -0.0370738131004 -1.96140220715e-12 1.39965214139e-11)
(-6.57902714331e-15 -1.19671806593e-26 -4.78687226373e-26 -1.60713320441 -1.39497449661e-11 -1.73304710039e-12 -0.0361524913556 -1.71500154263e-12 1.39552353894e-11)
(0 0 0 -1.85736032646 -1.38236292155e-11 -3.78375936932e-12 -0.0352395218314 -1.4819086416e-12 1.38245382536e-11)
(0 0 0 -2.16777206786 -1.359301965e-11 -6.34240110833e-12 -0.0343190128431 -1.26233115437e-12 1.3592531669e-11)
(0 0 0 -2.55685873375 -1.32407983175e-11 -9.57328175082e-12 -0.0333641755418 -1.05644240227e-12 1.32420384599e-11)
(0 0 0 -3.04673768228 -1.27501058342e-11 -1.36883425331e-11 -0.0323269901526 -8.65672789753e-13 1.27515077058e-11)
(0 0 0 -3.65754158841 -1.2092462468e-11 -1.89156556631e-11 -0.0311175629005 -6.90732076641e-13 1.20933930989e-11)
(0 0 0 -4.38954984397 -1.12372556125e-11 -2.53784288875e-11 -0.0295692413504 -5.33801502994e-13 1.12369258047e-11)
(0 0 0 -5.18891576983 -1.01603946977e-11 -3.28132746814e-11 -0.0274100135604 -3.95655470957e-13 1.01567103239e-11)
(0 0 0 -5.92767850635 -8.85903431534e-12 -4.03229296069e-11 -0.0243414200214 -2.76588998361e-13 8.85294659627e-12)
(0 0 0 -6.46657280274 -7.37189791404e-12 -4.67296795997e-11 -0.0203222280009 -1.79496177585e-13 7.36874187641e-12)
(2.63137848564e-15 1.19661239552e-27 1.91457983284e-26 -6.76954839987 -5.77783848521e-12 -5.1481125197e-11 -0.01573073558 -1.04550366062e-13 5.77644353578e-12)
(0 0 0 -6.91437649491 -4.12497449554e-12 -5.49384618116e-11 -0.0110361740316 -5.06453018095e-14 4.13792472369e-12)
(0 0 0 -6.99406698033 -2.44044396016e-12 -5.77309815692e-11 -0.00648183013711 -1.66026191576e-14 2.48687943315e-12)
(0 0 0 -7.0562677203 -8.8981853301e-13 -6.02422961002e-11 -0.00212681014262 -8.88244124305e-16 8.38384612882e-13)
(0 0 0 -0.00841360263971 1.14899632868e-11 6.92504077266e-13 -0.066505291095 -6.57842551699e-13 -1.14866984853e-11)
(0 0 0 -0.0247427644053 1.12086381719e-11 1.99681243877e-12 -0.0666251856307 -1.93511120653e-12 -1.12083510481e-11)
(0 0 0 -0.0400439125418 1.07006870411e-11 3.16701630115e-12 -0.0668603161306 -3.11187494573e-12 -1.06984881912e-11)
(0 0 0 -0.0543148315044 1.0007250331e-11 4.21385764385e-12 -0.0672077833373 -4.1767941705e-12 -1.00064798261e-11)
(0 0 0 -0.0676585503125 9.16860035306e-12 5.13049712813e-12 -0.0676578688581 -5.1304071549e-12 -9.16938071542e-12)
(0 0 0 -0.0802451030384 8.22419210069e-12 5.93207759898e-12 -0.0681911982587 -5.96415422227e-12 -8.22574424528e-12)
(0 0 0 -0.0922763633868 7.20207475835e-12 6.62561357776e-12 -0.0687800330187 -6.68399239187e-12 -7.20470067652e-12)
(0 0 0 -0.10396253901 6.13144097649e-12 7.22271671504e-12 -0.0693912692385 -7.29333957865e-12 -6.13360096583e-12)
(0 0 0 -0.115509896295 5.03162008355e-12 7.73616138675e-12 -0.069989560426 -7.7951794746e-12 -5.03146490255e-12)
(0 0 0 -0.127116186602 3.91878799829e-12 8.17271369951e-12 -0.070539919973 -8.19757714246e-12 -3.91785856297e-12)
(0 0 0 -0.138970400927 2.80717023274e-12 8.54223313646e-12 -0.071009692977 -8.5046129504e-12 -2.80577174845e-12)
(0 0 0 -0.151254581127 1.70801856801e-12 8.84962492596e-12 -0.0713699844048 -8.72428141066e-12 -1.70663022954e-12)
(0 0 0 -0.164146426301 6.29505835859e-13 9.0981138158e-12 -0.0715966585792 -8.86525019217e-12 -6.29174736147e-13)
(0 0 0 -0.177822110406 -4.2094345969e-13 9.2959701359e-12 -0.0716709953199 -8.93065965521e-12 4.20091771869e-13)
(0 0 0 -0.192459121247 -1.43660738918e-12 9.45304115408e-12 -0.0715800538884 -8.92144886946e-12 1.43751602769e-12)
(0 0 0 -0.208239144203 -2.41410806854e-12 9.56377765716e-12 -0.0713167717364 -8.85307522811e-12 2.41693601846e-12)
(0 0 0 -0.225351125413 -3.35532325401e-12 9.63051868194e-12 -0.0708798164044 -8.73190390913e-12 3.35810340678e-12)
(0 0 0 -0.243994709288 -4.2568600411e-12 9.6601013685e-12 -0.0702732086872 -8.55976051794e-12 4.25639502207e-12)
(0 0 0 -0.264384281231 -5.11407360452e-12 9.65418813926e-12 -0.069505744089 -8.34225334753e-12 5.11449288328e-12)
(0 0 0 -0.286753875663 -5.92614107865e-12 9.60911973935e-12 -0.0685902494488 -8.0897525321e-12 5.92806232451e-12)
(-6.5023332683e-15 -4.73107012534e-26 -2.36553506267e-26 -0.311363244423 -6.69335783804e-12 9.52688113114e-12 -0.0675427221807 -7.80523787609e-12 6.69983474659e-12)
(0 0 0 -0.338505429048 -7.42660485715e-12 9.40887051229e-12 -0.0663814057697 -7.49210157493e-12 7.42528569322e-12)
(7.14308061423e-15 5.19727517838e-26 2.59863758919e-26 -0.368516256991 -8.1110047823e-12 9.24941279102e-12 -0.0651258575061 -7.1587165267e-12 8.10792596144e-12)
(-7.48675661022e-15 -5.44733237637e-26 -5.44733237637e-26 -0.401786299331 -8.74133293455e-12 9.05002920114e-12 -0.0637960607546 -6.80538738611e-12 8.74772132829e-12)
(0 0 0 -0.438776004097 -9.34169144243e-12 8.80180817862e-12 -0.0624116258847 -6.44121940654e-12 9.34192921428e-12)
(8.22451015654e-15 2.99205936482e-26 2.99205936482e-26 -0.480034981263 -9.90197334066e-12 8.50389859252e-12 -0.060991111803 -6.06575541816e-12 9.89236915723e-12)
(8.62021711687e-15 3.13601671837e-26 6.27203343674e-26 -0.526226796802 -1.04072523201e-11 8.14737257767e-12 -0.0595514867683 -5.68498983861e-12 1.03993168945e-11)
(0 0 3.28690031135e-26 -0.578161187861 -1.08633224064e-11 7.72243810078e-12 -0.0581077335612 -5.30334935314e-12 1.086145418e-11)
(0 0 0 -0.636836414217 -1.12788886556e-11 7.22064885564e-12 -0.0566725913967 -4.92199130688e-12 1.12777049191e-11)
(0 0 0 -0.703495632412 -1.16488001272e-11 6.63080225869e-12 -0.0552564178499 -4.54195473622e-12 1.16468695283e-11)
(0 0 0 -0.779702890612 -1.19685753569e-11 5.93538690622e-12 -0.0538671453875 -4.16728198373e-12 1.19670994152e-11)
(0 0 0 -0.867446854833 -1.22386762421e-11 5.11206940329e-12 -0.0525103019724 -3.80215726249e-12 1.22372588737e-11)
(0 0 0 -0.969284047524 -1.24549170946e-11 4.13834645399e-12 -0.051189057868 -3.44533269792e-12 1.24542792526e-11)
(0 -2.17874055015e-26 0 -1.08853864644 -1.26151489973e-11 2.98000019073e-12 -0.0499042515315 -3.0994416807e-12 1.26151673275e-11)
(0 0 0 -1.22958310436 -1.27159532449e-11 1.593891955e-12 -0.0486543278871 -2.76537426033e-12 1.27154106572e-11)
(0 0 0 -1.39823254444 -1.27499652709e-11 -7.87129501804e-14 -0.0474350805098 -2.44471993036e-12 1.27500811385e-11)
(0 0 0 -1.60229239699 -1.27110363854e-11 -2.11783509058e-12 -0.0462390003744 -2.13936058943e-12 1.27120114208e-11)
(0 0 0 -1.85228862757 -1.25911565753e-11 -4.63076818091e-12 -0.0450538396939 -1.849096322e-12 1.25923567141e-11)
(0 0 0 -2.16233499563 -1.23781852037e-11 -7.76679632036e-12 -0.0438595747065 -1.57505849689e-12 1.23794311581e-11)
(0 0 0 -2.55080523057 -1.2057177184e-11 -1.17283496447e-11 -0.0426220348046 -1.31901036193e-12 1.20578342155e-11)
(0 0 0 -3.03958053193 -1.1605903473e-11 -1.67724619742e-11 -0.0412796321442 -1.08120242136e-12 1.1607399687e-11)