/*--------------------------------*- C++ -*----------------------------------*\
| =========                 |                                                 |
| \\      /  F ield         | OpenFOAM: The Open Source CFD Toolbox           |
|  \\    /   O peration     | Version:  3.0.1                                 |
|   \\  /    A nd           | Web:      www.OpenFOAM.org                      |
|    \\/     M anipulation  |                                                 |
\*---------------------------------------------------------------------------*/
FoamFile
{
    version     2.0;
    format      ascii;
    class       volScalarField;
    location    "50000";
    object      nut;
}
// * * * * * * * * * * * * * * * * * * * * * * * * * * * * * * * * * * * * * //

dimensions      [0 2 -1 0 0 0 0];

internalField   nonuniform List<scalar> 
2500
(
0.00310121509916
0.00311404496229
0.0031346559502
0.00315698910253
0.00317557400358
0.0031862765477
0.00318641463289
0.00317455657378
0.00315022546365
0.00311361958698
0.00306538589633
0.0030064491869
0.0029378878096
0.00286084506196
0.00277646712189
0.00268586068561
0.00259006537761
0.00249003734414
0.00238664132276
0.00228064905196
0.00217274227706
0.00206351891099
0.00195350116963
0.00184314474402
0.00173284829885
0.00162296279562
0.0015138003235
0.00140564227946
0.00129874687035
0.00119335601874
0.00108970184857
0.00098801301834
0.000888521274051
0.000791468738967
0.000697116680033
0.000605756862659
0.000517727247576
0.000433434912234
0.000353391049742
0.000278266130009
0.000208977414699
0.000146820150215
9.36179730819e-05
5.16995384507e-05
2.31179841681e-05
7.67881957187e-06
1.69875372237e-06
2.10356078822e-07
1.26178897629e-08
4.17647748036e-09
0.00311403552276
0.0031266689304
0.00314697802619
0.00316899920798
0.00318732263827
0.0031978318395
0.00319782979459
0.00318585247006
0.00316138574958
0.00312459407143
0.00307609836881
0.00301680705997
0.00294779187654
0.002870198332
0.00278518213631
0.00269386502012
0.00259730525506
0.0024964794461
0.00239227300909
0.00228547727629
0.00217679152596
0.00206682849765
0.00195612218766
0.00184513694125
0.00173427707473
0.00162389646716
0.00151430775051
0.00140579089315
0.00129860111327
0.00119297617766
0.001089143245
0.000987325511825
0.000887749030148
0.000790650214565
0.00069628478268
0.000604939246583
0.000516946716659
0.000432709908722
0.000352736215728
0.000277692930693
0.000208494783737
0.000146434971555
9.33347153376e-05
5.15173122543e-05
2.30237410406e-05
7.64373435504e-06
1.69044166795e-06
2.0930026147e-07
1.25593805368e-08
4.16190970171e-09
0.00313463119668
0.00314696264776
0.00316682025766
0.00318840158056
0.00320639874965
0.00321672285433
0.00321664711314
0.00320464623443
0.00318013532377
0.00314321323914
0.00309444881149
0.00303471550312
0.002965067885
0.0028866508559
0.00280063365416
0.00270816263635
0.00261032848769
0.00250814473764
0.00240253522839
0.00229432865159
0.00218425855601
0.00207296742951
0.00196101363301
0.00184888014131
0.00173698423304
0.00162568746547
0.00151530546039
0.0014061172033
0.00129837371703
0.00119230610758
0.00108813310198
0.000986068312563
0.000886327585326
0.000789136948659
0.000694741911675
0.000603419240073
0.000515492984537
0.000431357668717
0.000351513513718
0.000276621789544
0.000207592401967
0.000145714616913
9.28050186062e-05
5.1176711669e-05
2.28477364256e-05
7.57826987521e-06
1.67494267483e-06
2.07332113062e-07
1.24502604978e-08
4.13467913676e-09
0.00315694714711
0.00316896643544
0.00318838399183
0.00320959543727
0.00322741823551
0.00323779460208
0.00323795430266
0.00322628591854
0.00320210381881
0.00316541096579
0.00311669663189
0.00305677671226
0.00298667193776
0.0029075162778
0.00282048848461
0.00272676136453
0.00262746489898
0.00252366046779
0.00241632414957
0.00230633748726
0.00219448432588
0.00208145245125
0.00196783885039
0.00185415751774
0.00174084886152
0.00162828992217
0.00151680479
0.00140667478902
0.00129814816755
0.00119144919637
0.00108678672222
0.000984362362437
0.000884378671564
0.000787047785045
0.000692601291337
0.000601302471412
0.000513462698407
0.000429464926708
0.000349799169673
0.000275118061901
0.000206324536194
0.000144702121502
9.20606200642e-05
5.06984288031e-05
2.2600909809e-05
7.4865942778e-06
1.65326060589e-06
2.04580058824e-07
1.22975618828e-08
4.09643848931e-09
0.00317551614843
0.00318727361413
0.00320636444647
0.00322740120325
0.00324534034763
0.00325615779465
0.00325703058286
0.0032462423883
0.00322298197197
0.00318712870326
0.00313906444971
0.00307952159416
0.00300946450764
0.00292999822962
0.00284229825731
0.00274755665251
0.00264694104482
0.00254156417408
0.00243246231348
0.00232058130673
0.00220676913038
0.00209177394649
0.00197624661583
0.00186074665036
0.00174575062685
0.00163166217235
0.00151882276273
0.00140752273698
0.00129801210609
0.0011905109143
0.00108521908469
0.000982325850244
0.000882019045152
0.000784494731544
0.000689967903294
0.000598685412075
0.000510942926415
0.000427108879057
0.000347660329411
0.000273238843413
0.000204738319588
0.00014343475923
9.11290355797e-05
5.01004969569e-05
2.22928733554e-05
7.37239971611e-06
1.62628951026e-06
2.01158730539e-07
1.21075337808e-08
4.04862444408e-09
0.00318620606283
0.00319776967809
0.00321667467618
0.00323776302721
0.00325614286893
0.00326783082887
0.00326994956887
0.00326066734535
0.00323902945545
0.00320476865524
0.00315813342181
0.00309974565837
0.00303048715801
0.00295141005954
0.00286366615112
0.00276845082106
0.00266695863536
0.00256034851936
0.00244971721939
0.00233608013342
0.00222035878256
0.00210337422377
0.00198584564523
0.00186839330445
0.00175154490746
0.00163574451682
0.00152136312541
0.00140871013966
0.00129804516703
0.00118958968177
0.00108353833688
0.000980069890233
0.000879357922151
0.000781581756401
0.0006869382936
0.00059565589447
0.000508012135354
0.000424358416845
0.00034515638247
0.000271034255621
0.000202874898753
0.000141944975867
9.00342295596e-05
4.93986874424e-05
2.19320876688e-05
7.238955472e-06
1.59482401474e-06
1.97170159029e-07
1.1885716774e-08
3.99248674689e-09
0.00318633564262
0.00319775849294
0.00321658882282
0.00323791163367
0.00325700381488
0.00326993733876
0.00327378827189
0.00326660853364
0.00324729058798
0.00321540414034
0.00317104255435
0.00311469205522
0.00304712490552
0.00296931326017
0.00288235951478
0.00278743951164
0.00268575591836
0.00257850000037
0.00246682070777
0.00235180045587
0.00223443721632
0.00211563259303
0.00199618548934
0.00187679083554
0.00175804269353
0.00164044093314
0.00152440061219
0.00141026320431
0.00129830890326
0.00118876937774
0.00108184054097
0.000977695118592
0.000876495041643
0.00077840396624
0.000683600558657
0.000592293648729
0.000504741069389
0.000421275180994
0.00034234006531
0.00026854849958
0.000200770364573
0.000140261143636
8.879715894e-05
4.86068369169e-05
2.15260114585e-05
7.08915546196e-06
1.55956911753e-06
1.92704933306e-07
1.16370126702e-08
3.92911235148e-09
0.00317447325681
0.0031857761188
0.00320458175206
0.00322623583252
0.0032462071559
0.00326064592755
0.00326659899405
0.00326201083819
0.00324562083393
0.00321682698472
0.00317555190468
0.00312212510681
0.00305718446985
0.00298159503745
0.00289638194438
0.00280267440669
0.0027016583911
0.00259453634791
0.00248249306136
0.00236666717195
0.0022481282401
0.00212785935809
0.00200674530135
0.00188556608101
0.00176499556291
0.00164560460741
0.00152786800486
0.00141217437016
0.00129883813539
0.00118811284504
0.00108020510423
0.000975288740267
0.00087351899969
0.000775046914249
0.000680034351462
0.000588670776061
0.000501193505282
0.000417914455852
0.000339258385284
0.000265820730901
0.000198456521208
0.000138408183968
8.74362245995e-05
4.77371232242e-05
2.10812314574e-05
6.92556130315e-06
1.5211494584e-06
1.8784332438e-07
1.13657501701e-08
3.85944597049e-09
0.00315014156988
0.00316130805115
0.00318006825
0.00320204975612
0.00322294150084
0.00323900181854
0.00324727419306
0.00324561368191
0.0032326152564
0.00320750477448
0.00317002557492
0.00312033519849
0.00305891653574
0.00298650293972
0.00290401510845
0.00281250728886
0.00271312073049
0.00260704289917
0.00249547154966
0.00237958326278
0.00226050643443
0.00213929894047
0.00201693078702
0.00189427200134
0.0017720858482
0.00165102721499
0.00153164574476
0.0014143930637
0.00129963328971
0.00118765594995
0.0010786904861
0.000972921680563
0.000870505582454
0.000771585841278
0.000676310777842
0.000584852083983
0.000497426852414
0.000414325900141
0.000335953383697
0.000262885784518
0.000195961523778
0.000136408085244
8.59676492052e-05
4.68002996813e-05
2.06035756938e-05
6.75044124841e-06
1.48011798898e-06
1.82656355408e-07
1.10757461522e-08
3.78430778118e-09
0.0031135381988
0.00312451809723
0.00314314660716
0.00316535587873
0.00318708581622
0.00320473744841
0.00321538333224
0.00321681489487
0.0032074995993
0.00318649873632
0.00315337528351
0.00310810615637
0.00305100423544
0.00298265097312
0.00290383840303
0.00281551877695
0.0027187601243
0.00261470638682
0.00250454123626
0.00238945514065
0.00227061565185
0.00214914120529
0.0020260789248
0.00190238699094
0.00177892205851
0.00165643201351
0.00153555407991
0.00141681797465
0.00130065352386
0.00118740194664
0.00107732992264
0.00097064560255
0.000867515898367
0.000768084696478
0.000672492075534
0.000580895216879
0.00049349256351
0.000410554104898
0.000332462743254
0.000259774763134
0.000193310401696
0.000134280331088
8.44057927195e-05
4.58058935676e-05
2.00982117041e-05
6.56580498074e-06
1.43696393109e-06
1.77206797513e-07
1.07703619285e-08
3.70440871964e-09
0.00306530935351
0.00307602647776
0.00309438499554
0.00311664288255
0.00313902145557
0.00315810085763
0.00317101941287
0.00317553679759
0.00317001696982
0.00315337167116
0.00312498972642
0.00308466562991
0.00303253346074
0.00296900799836
0.00289473283973
0.0028105344614
0.00271738096013
0.00261634432712
0.00250856539279
0.00239522093419
0.00227749281196
0.00215653935657
0.00203346951722
0.00190932048143
0.00178503954053
0.00166147089937
0.00153934791771
0.00141929095748
0.00130181065228
0.00118731607734
0.00107612704684
0.000968489648459
0.000864594173058
0.00076459482265
0.000668630989603
0.000576850523798
0.000489436322472
0.0004066389637
0.000328820238175
0.000256515495332
0.000190525476996
0.000132042248532
8.27634125132e-05
4.47623724144e-05
1.95697306216e-05
6.37343419647e-06
1.39211992758e-06
1.71550074422e-07
1.04525538877e-08
3.6203636439e-09
0.00300637911082
0.00301674091562
0.00303465622391
0.00305672606452
0.00307948026666
0.0030997134803
0.00311466825612
0.00312210856076
0.00312032462364
0.00310810026151
0.00308466321178
0.00304963049229
0.00300295499805
0.00294487599316
0.00287587417021
0.00279663094256
0.00270799120459
0.002610928696
0.00250651320022
0.00239587902022
0.002280194463
0.00216063239187
0.0020383422377
0.00191442415333
0.00178990620377
0.00166572556744
0.00154271465451
0.00142159282701
0.00130296406284
0.0011873205004
0.00107505141158
0.000966456855243
0.000861765130866
0.000761153227275
0.000664769776616
0.000572760613453
0.000485297977245
0.000402615838248
0.000325056021144
0.000253132864617
0.00018762668247
0.000129709281711
8.10518726453e-05
4.3677280591e-05
1.90222178543e-05
6.17490895983e-06
1.34596832659e-06
1.65735065044e-07
1.0124918175e-08
3.53270258227e-09
0.00293782518165
0.00294773251862
0.00296501426972
0.0029866256035
0.00300942611754
0.00303045665934
0.00304710172779
0.00305716771822
0.00305890515539
0.00305099713747
0.00303252960995
0.00300295346761
0.00296204434772
0.00290986320779
0.00284671904646
0.00277313409996
0.00268981127799
0.00259760332725
0.00249748312835
0.00239051458794
0.00227782375143
0.00216057000962
0.00203991758042
0.00191700777941
0.00179293290457
0.00166871279761
0.00154527525452
0.00142344140429
0.00130391694791
0.00118728977738
0.00107403404175
0.000964520284743
0.000859030947154
0.000757780396305
0.000660938788903
0.000568659554456
0.000481111187451
0.000398515500958
0.000321196738507
0.00024964900748
0.000184631781568
0.000127295194501
7.92813054731e-05
4.25573481285e-05
1.8459311031e-05
5.97162990124e-06
1.29884657927e-06
1.59804799176e-07
9.78972932449e-09
3.44188026442e-09
0.00286079032684
0.00287014627349
0.0028866035247
0.0029074749904
0.00292996360471
0.00295138213042
0.00296929162126
0.00298157899343
0.00298649163772
0.00298264350854
0.00296900349241
0.0029448736442
0.00290986232095
0.00286385534555
0.00280698699209
0.00273961166882
0.00266227656665
0.00257569515309
0.00248072116896
0.0023783226935
0.00226955586891
0.00215553800703
0.00203742002895
0.00191635849449
0.00179348782839
0.00166989369527
0.00154658875421
0.00142449217261
0.00130441424811
0.00118704725777
0.00107296325089
0.000962618998459
0.000856367819295
0.000754477647122
0.000657154611201
0.000564571687856
0.000476902758863
0.000394363835326
0.000317265462893
0.000246083376166
0.000181556489867
0.000124812203968
7.7460727866e-05
4.14085734192e-05
1.788424593e-05
5.7648364206e-06
1.25105176559e-06
1.53797046668e-07
9.44897299814e-09
3.3482841342e-09
0.00277642029744
0.00278513746799
0.00280059281544
0.00282045258285
0.00284226785413
0.00286364133845
0.0028823400195
0.00289636723991
0.00290400451829
0.00290383118757
0.00289472826323
0.00287587154781
0.00284671777373
0.00280698656018
0.00275664010794
0.00269586186509
0.00262503485009
0.00254471989716
0.00245563377936
0.00235862695779
0.00225466060236
0.00214478253211
0.00203010183716
0.00191176216651
0.00179091398424
0.00166868647791
0.00154616019601
0.00142434182503
0.00130414271583
0.0011863627677
0.0010716810486
0.00096065409412
0.000853722272169
0.000751224062245
0.000653417747524
0.00056051003089
0.000472691640558
0.000390181274588
0.000313281430736
0.000242452659875
0.000178414496314
0.000122271045366
7.55981137043e-05
4.02362812668e-05
1.72998911649e-05
5.55562113119e-06
1.20284428979e-06
1.47744804384e-07
9.10437317919e-09
3.25224105283e-09
0.0026858214684
0.00269382751184
0.00270812818045
0.00272673087662
0.00274753062993
0.00276842939167
0.0027874225056
0.00280266143705
0.00281249783022
0.00281551223493
0.00281053022895
0.00279662844205
0.00277313281152
0.00273961114691
0.00269586174557
0.00264189941636
0.00257793987438
0.00250438309547
0.0024217958877
0.00233089366256
0.00223252118748
0.00212763198592
0.00201726604015
0.00190252555619
0.00178454877757
0.00166448217692
0.00154345178057
0.00142253483729
0.00130273344702
0.00118495202693
0.0010699805299
0.000958485100872
0.000851007385455
0.000747973097522
0.000649709888107
0.000556474267119
0.000468487566826
0.000385981960192
0.000309259571009
0.000238770556473
0.00017521738098
0.000119680968455
7.37004238674e-05
3.90451576389e-05
1.67087724391e-05
5.34494083237e-06
1.15445080602e-06
1.41676688121e-07
8.75741430784e-09
3.15402291366e-09
0.00259003323811
0.00259727444761
0.00261030007281
0.00262743962073
0.00264691933355
0.00266694063687
0.00268574154055
0.00270164735985
0.00271311264739
0.00271875452052
0.00271737734263
0.00270798909265
0.00268981022966
0.00266227619576
0.00262503483525
0.00257793996149
0.00252104212569
0.00245457738782
0.00237895460255
0.00229474144885
0.00220264917539
0.00210351583254
0.00199828763672
0.00188799809092
0.00177374458706
0.00165666245622
0.00153789681072
0.00141857300872
0.00129976710939
0.00118247818105
0.00106760466636
0.000955927094094
0.000848099200765
0.000744649017476
0.000645990826354
0.000552448340792
0.000464289336248
0.000381772604903
0.000305209811573
0.000235047385838
0.000171974425182
0.000117049664374
7.17735946892e-05
3.78392624636e-05
1.61130872453e-05
5.13362434559e-06
1.10606644993e-06
1.35617238805e-07
8.40935895625e-09
3.05385140407e-09
0.00249001160839
0.00249645473054
0.00250812186486
0.00252364003178
0.00254154653913
0.00256033383552
0.00257848823171
0.00259452730917
0.00260703629645
0.0026147018579
0.0026163414783
0.00261092713292
0.00259760267877
0.00257569508801
0.00254472013432
0.0025043834083
0.00245457760441
0.00239537693905
0.00232702937657
0.00224994710138
0.00216469541618
0.00207197999968
0.00197263225098
0.00186759231368
0.00175788934129
0.00164461866956
0.00152891582323
0.00141192771114
0.00129478193068
0.00117855574456
0.00106424690326
0.000952748929859
0.000844833630254
0.00074114337329
0.000642195143924
0.000548397703581
0.000460082736087
0.000377551051757
0.000301136151187
0.000231289535847
0.000168692309283
0.000114383121907
6.98224857662e-05
3.66220218585e-05
1.55147109511e-05
4.92237758423e-06
1.05785646232e-06
1.29587153734e-07
8.06126172154e-09
2.95190216573e-09
0.00238662123948
0.00239225369246
0.0024025173045
0.00241630808394
0.00243244840793
0.0024497056185
0.00246681141406
0.00248248595765
0.00249546642613
0.00250453781957
0.00250856337435
0.0025065122615
0.00249748296174
0.00248072149352
0.0024556343514
0.00242179650672
0.00237895511315
0.0023270296673
0.00226610933634
0.00219644802196
0.00211845752047
0.00203269889555
0.00193987193605
0.00184080235711
0.00173642625625
0.0016277712964
0.001515934197
0.00140205440696
0.00128728432621
0.00117275711418
0.00105955390416
0.000948673003829
0.000841004235927
0.000737311800659
0.000638228836959
0.000544266300565
0.000455838142625
0.000373304530861
0.000297035489362
0.000227498733107
0.000165374693672
0.000111685412097
6.78507881493e-05
3.53962013319e-05
1.49151953024e-05
4.7117862631e-06
1.00995729998e-06
1.23603454884e-07
7.71398008316e-09
2.84830862297e-09
0.00228063384539
0.00228546263374
0.00229431503974
0.0023063252638
0.0023205707165
0.00233607130916
0.00235179342461
0.00236666186694
0.00237957954035
0.00238945280006
0.00239521973854
0.00239587871655
0.00239051492489
0.00237832343557
0.00235862789587
0.00233089462061
0.00229474228723
0.00224994771733
0.00219644834785
0.00213434198076
0.00206388428131
0.00198548430307
0.00189969808158
0.00180722008986
0.00170887212169
0.00160558900594
0.00149840050548
0.00138840887301
0.00127676187169
0.00116462165063
0.00105313067855
0.000943376904044
0.000836361271324
0.000732971468129
0.000633966114576
0.000539973429
0.000451507858364
0.000369007632429
0.000292896213666
0.000223671133458
0.000162021679537
0.000108958400719
6.58608943822e-05
3.41638617763e-05
1.4315760502e-05
4.50231669317e-06
9.62477337575e-07
1.17679607317e-07
7.36818303645e-09
2.74316577068e-09
0.00217273118663
0.00217678084031
0.00218424861475
0.00219447539796
0.0022067614102
0.00222035238744
0.00223443218714
0.0022481245462
0.00226050398279
0.00227061429979
0.00227749238192
0.00228019475785
0.00227782456891
0.00226955701417
0.00225466189787
0.00223252248005
0.00220265034041
0.00216469635933
0.00211845817737
0.00206388461553
0.00200107753746
0.00193029153085
0.00185193160267
0.0017665488458
0.00167483377402
0.00157760677494
0.00147580494591
0.00137046451638
0.00126269819364
0.00115366716464
0.00104454819231
0.000936497251681
0.000830612367208
0.000727899543161
0.000629246656689
0.000535410656166
0.000447023285534
0.000364620037556
0.000288696555997
0.000219796232733
0.000158629148531
0.000106201389478
6.38537326781e-05
3.29263005293e-05
1.3717282203e-05
4.29431515789e-06
9.15497274146e-07
1.11825601938e-07
7.0243583874e-09
2.63653423981e-09
0.00206351121934
0.00206682108777
0.00207296054146
0.00208144628233
0.00209176864768
0.00210336989546
0.00211562928229
0.00212785705887
0.00213929759749
0.00214914072129
0.00215653960213
0.00216063321659
0.00216057125356
0.00215553951126
0.0021447841477
0.00212763358088
0.00210351729655
0.00207198124668
0.00203269986453
0.0019854849572
0.00193029185551
0.00186722320694
0.0017965307022
0.00171861484479
0.00163402262732
0.00154344269668
0.00144769731377
0.00134773019894
0.00124458927913
0.00113940350825
0.00103335341556
0.000927635916266
0.000823425197192
0.000721833055131
0.000623873664868
0.000530439037831
0.000442292081455
0.000360084079176
0.000284402746863
0.000215855607202
0.000155187984917
0.000103410689208
6.1828568915e-05
3.1683980481e-05
1.31202750202e-05
4.08800643726e-06
8.69070371143e-07
1.06048018384e-07
6.68281968647e-09
2.52844499009e-09
0.00195349622088
0.00195611742734
0.00196100922459
0.00196783493442
0.00197624330681
0.00198584302667
0.0019961836092
0.00200674416941
0.00201693037517
0.00202607917045
0.00203347032923
0.00203834350414
0.00203991917725
0.00203742182858
0.00203010371632
0.0020172678864
0.0019982893533
0.00197263376
0.00193987318005
0.00189969902366
0.00185193222544
0.00179653100591
0.00173359650891
0.0016633765242
0.00158626731757
0.00150281332702
0.00141370417011
0.00131976808948
0.00122196070998
0.00112134788873
0.00101908163256
0.000916368667911
0.000814432381403
0.000714470516659
0.000617613069906
0.000524886931305
0.00043719549323
0.000355322244783
0.00027996702135
0.000211821506849
0.000151683191115
0.000100579132429
5.9782782404e-05
3.04364513021e-05
1.25248745608e-05
3.88349215182e-06
8.23222668937e-07
1.00350086135e-07
6.34371391036e-09
2.41890501699e-09
0.00184314195414
0.00184513427033
0.00184887769502
0.00185415539252
0.00186074493079
0.00186839205825
0.00187679010815
0.00188556589148
0.00189427234041
0.00190238782175
0.00190932174261
0.00191442576401
0.0019170096455
0.00191636051542
0.00191176424179
0.00190252759124
0.00188800000183
0.00186759403064
0.00184080382652
0.00180722127519
0.00176654972737
0.00171861541862
0.00166337680026
0.00160093201077
0.00153152462093
0.00145554758525
0.00137354503848
0.00128621121622
0.00119438540323
0.00109904150775
0.0010012707504
0.00090225621163
0.000803238788036
0.000705475617118
0.000610194266776
0.000518548740265
0.000431586123525
0.000350234779501
0.000275325563266
0.000207655344744
0.000148092919148
9.76955392092e-05
5.77116250047e-05
2.91822685715e-05
1.19308205922e-05
3.68074976294e-06
7.7795336029e-07
9.47317656692e-08
6.00703119445e-09
2.30790450016e-09
0.00173284715987
0.00173427600412
0.00173698329376
0.00174084811648
0.00174575013663
0.00175154472561
0.00175804286103
0.0017649961034
0.00177208676483
0.0017789233329
0.00178504113389
0.00178990805981
0.00179293495379
0.00179348999312
0.00179091618396
0.00178455093392
0.00177374662822
0.00175789120543
0.00173642789398
0.00170887349742
0.00167483486634
0.00163402342858
0.00158626783274
0.00153152486599
0.00146988881435
0.00140159932803
0.00132704762987
0.00124678056616
0.00116150157401
0.00107206718566
0.000979477316864
0.000884857463614
0.000789431293647
0.000694483232819
0.000601312729671
0.000511184956491
0.000425286430991
0.000344697601252
0.000270396515819
0.00020330615383
0.000144387457821
9.47441605465e-05
5.5607978833e-05
2.79189192211e-05
1.13374449145e-05
3.47963332344e-06
7.33235549339e-07
8.91898772891e-08
5.6726182032e-09
2.19542585722e-09
0.00162296287526
0.00162389657929
0.00162568764232
0.00162829020165
0.00163166259624
0.00163574512645
0.0016404417641
0.00164560568471
0.00165102854934
0.00165643359931
0.00166147271449
0.00166572757459
0.00166871494705
0.00166989592846
0.00166868873159
0.00166448438727
0.0016566645627
0.00164462061821
0.00162777304237
0.00160559051516
0.00157760802501
0.00154344367694
0.00150281403801
0.00145554803762
0.00140159954108
0.00134105871616
0.00127416219007
0.00120130173288
0.00112303080059
0.00104006775358
0.000953294005995
0.000863744901578
0.000772590989465
0.000681107923981
0.000590634821207
0.000502523872618
0.000418088312899
0.000338560796119
0.000265078237846
0.000198709120159
0.000140528240559
9.17041390394e-05
5.34621364876e-05
2.66427657351e-05
1.07436689477e-05
3.27987746498e-06
6.89017701553e-07
8.37183142772e-08
5.34019713456e-09
2.08145518687e-09
0.00151380126166
0.00151430869657
0.0015153064251
0.00151680579321
0.0015188238318
0.00152136429141
0.00152440190512
0.00152786944901
0.00153164735488
0.00153555585878
0.00153934985505
0.00154271672733
0.00154527742867
0.00154659098678
0.00154616243842
0.00154345398185
0.00153789892076
0.00152891779572
0.00151593599192
0.0014984020909
0.00147580629917
0.00144769842201
0.00141370503014
0.00137354565618
0.0013270480192
0.00127416237174
0.00121497505574
0.00114972120596
0.00107879622468
0.00100276515676
0.00092236844873
0.000838521869219
0.000752307801756
0.000664955035356
0.000577805065312
0.000492265332585
0.000409754149904
0.000331648017387
0.000259248042774
0.000193784349866
0.000136466973685
8.85490492128e-05
5.12616405373e-05
2.53490274563e-05
1.01480181602e-05
3.08110668357e-06
6.4522620251e-07
7.8308390153e-08
5.00939290503e-09
1.96599656085e-09
0.00140564378263
0.00140579238813
0.0014061186865
0.00140667626761
0.00140752422755
0.00140871166493
0.00141026478891
0.00141217603637
0.0014143948279
0.00141681984465
0.00141929293109
0.00142159489166
0.00142344353776
0.00142449434454
0.0014243439991
0.00142253697368
0.00141857506679
0.00141192965193
0.00140205619547
0.00138841047999
0.0013704659197
0.00134773138434
0.00131976905087
0.00128621195542
0.00124678109233
0.00120130206158
0.00114972135795
0.00109212237463
0.00102874100955
0.000959980371053
0.000886423455593
0.000808841843552
0.000728197555304
0.000645634518491
0.00056245612897
0.000480086875046
0.00040001971468
0.000323757162891
0.000252761720545
0.000188436085982
0.000132145031057
8.52466113692e-05
4.89912371627e-05
2.40318256755e-05
9.54866339478e-06
2.88285277225e-06
6.01769596334e-07
7.29493874996e-08
4.67977174338e-09
1.84908951682e-09
0.00129874870481
0.00129860292976
0.00129837550296
0.00129814992157
0.00129801383701
0.00129804689092
0.00129831063985
0.00129883990433
0.00129963510732
0.0013006554006
0.0013018125911
0.00130296605847
0.00130391898703
0.00130441631016
0.00130414477447
0.00130273547194
0.00129976906838
0.00129478379169
0.00128728605931
0.00127676345076
0.00126269959777
0.00124459049353
0.00122196172649
0.00119438622044
0.00116150219697
0.00112303124021
0.00107879649689
0.00102874113426
0.000972947141652
0.000911654326219
0.000845278852595
0.000774429867146
0.000699921664862
0.00062277768419
0.000544221792487
0.00046565263717
0.000388599369253
0.000314662753027
0.000245454208349
0.00018255265934
0.000127493319117
8.17587144653e-05
4.66330231274e-05
2.26843301516e-05
8.94350292289e-06
2.6845842381e-06
5.58545262835e-07
6.76293973361e-08
4.35089514452e-09
1.73082985152e-09
0.00119335800324
0.00119297813901
0.00119230802808
0.00119145106938
0.00119051274313
0.00118959147737
0.00118877115555
0.00118811462184
0.00118765774097
0.00118740376326
0.00118731792549
0.00118732237966
0.00118729168079
0.00118704917219
0.00118636467472
0.00118495390415
0.00118248000359
0.00117855748669
0.00117275875094
0.00116462315936
0.00115366852624
0.00113940470815
0.0011213489176
0.00109904236178
0.00107206786657
0.00104006826829
0.00100276551686
0.000959980591994
0.000911654426458
0.000857869974132
0.000798875255569
0.000735106556748
0.000667209880658
0.000596057301025
0.000522753328548
0.00044862546751
0.000375194029608
0.000304120487733
0.000237141844977
0.000176007533456
0.000122432885521
7.80419350939e-05
4.41668954029e-05
2.12990579143e-05
8.33030336012e-06
2.48575260954e-06
5.15449487637e-07
6.23365596333e-08
4.02239367794e-09
1.61139334534e-09
0.00108970384706
0.00108914521837
0.0010881350303
0.00108678859585
0.00108522090333
0.00108354010759
0.00108184227557
0.00108020681664
0.00107869218988
0.00107733162896
0.00107612876304
0.00107505314019
0.00107403578013
0.00107296499133
0.0010716827788
0.00106998223384
0.00106760632537
0.00106424849724
0.00105955541288
0.00105313208288
0.0010445494754
0.00103335456376
0.00101908263614
0.00100127160401
0.000979478019729
0.000953294561793
0.000922368865301
0.000886423744409
0.000845279028086
0.000798875334344
0.000747300031327
0.000690815232242
0.000629886789237
0.000565211781322
0.000497740002503
0.000428682911213
0.000359502516134
0.000291874557487
0.000227626727718
0.000168661886772
0.000116876621765
7.40487982191e-05
4.15714461621e-05
1.98683887511e-05
7.70692149733e-06
2.28586137708e-06
4.72392012205e-07
5.70608286387e-08
3.69406506478e-09
1.49106129426e-09
0.000988014932857
0.000987327401459
0.000986070157124
0.000984364150991
0.000982327580267
0.000980071565939
0.000977696748819
0.000975290336268
0.00097292325396
0.000970647163619
0.000968491204826
0.000966458411007
0.00096452184002
0.000962620549304
0.000960655632775
0.000958486616292
0.000955928572688
0.000952750356377
0.00094867436234
0.000943378178931
0.000936498428591
0.000927636982961
0.000916369614966
0.000902257032942
0.0008848581567
0.000863745467655
0.00083852231308
0.000808842173249
0.000774430093521
0.000735106692839
0.000690815292609
0.000641652614517
0.000587902962023
0.000530074586392
0.000468934870158
0.000405538151641
0.000341237222067
0.000277668488585
0.000216703824648
0.000160369276038
0.000110732491978
6.9730083441e-05
3.88254756237e-05
1.83853712881e-05
7.07163062849e-06
2.08456327916e-06
4.29316084271e-07
5.17963745321e-08
3.3659994706e-09
1.37024565163e-09
0.000888523038205
0.000887750771089
0.000886329283913
0.000884380316751
0.000882020633212
0.000879359455307
0.000876496526343
0.000873520444818
0.00087050699765
0.000867517292611
0.000864595553565
0.000861766502308
0.000859032311211
0.000856369174486
0.000853723613948
0.00085100870652
0.000848100491541
0.000844834879516
0.00084100543151
0.000836362400875
0.000830613418947
0.000823426160621
0.000814433247928
0.000803239551469
0.000789431950556
0.000772591539359
0.000752308247099
0.000728197901364
0.000699921919417
0.000667210053572
0.00062988689195
0.000587903006971
0.000541371539262
0.00049061028512
0.000436187632897
0.000378967671012
0.00032014563316
0.000261260733879
0.000204171757651
0.000150983073441
0.00010390880585
6.50385248421e-05
3.59103077146e-05
1.68448905759e-05
6.42357052237e-06
1.88178966468e-06
3.86224539094e-07
4.65446685942e-08
3.03873097753e-09
1.24951025634e-09
0.000791470312007
0.000790651766912
0.000789138463031
0.000787049251064
0.000784496145023
0.000781583118235
0.000778405281018
0.000775048188818
0.000771587083399
0.000768085913678
0.000764596021313
0.00076115441199
0.000757781569457
0.000754478808701
0.000751225209851
0.000747974226539
0.000744650121377
0.000741144444056
0.000737312829279
0.000732972445153
0.000727900459269
0.000721833901697
0.000714471286269
0.000705476304016
0.000694483833257
0.000681108436449
0.000664955460685
0.000645634859822
0.000622777946815
0.000596057492114
0.000565211909558