/*--------------------------------*- C++ -*----------------------------------*\
| =========                 |                                                 |
| \\      /  F ield         | OpenFOAM: The Open Source CFD Toolbox           |
|  \\    /   O peration     | Version:  3.0.1                                 |
|   \\  /    A nd           | Web:      www.OpenFOAM.org                      |
|    \\/     M anipulation  |                                                 |
\*---------------------------------------------------------------------------*/
FoamFile
{
    version     2.0;
    format      ascii;
    class       volScalarField;
    location    "50000";
    object      p;
}
// * * * * * * * * * * * * * * * * * * * * * * * * * * * * * * * * * * * * * //

dimensions      [0 2 -2 0 0 0 0];

internalField   nonuniform List<scalar> 
2500
(
-2.09041269788e-15
-4.02352106958e-15
-6.28509992872e-15
-8.02788126497e-15
-8.41802650054e-15
-8.92818765384e-15
-9.16713561375e-15
-1.03293450426e-14
-1.23746739815e-14
-1.47294944466e-14
-1.68302930469e-14
-1.87630914365e-14
-2.0582501464e-14
-2.13168946397e-14
-2.20364056361e-14
-2.24506474422e-14
-2.26848173269e-14
-2.23202538226e-14
-2.16788590349e-14
-2.06273568315e-14
-1.94741210197e-14
-1.80436309749e-14
-1.63646836978e-14
-1.44300880841e-14
-1.22213760918e-14
-9.78486122294e-15
-7.1545730397e-15
-4.34888254583e-15
-1.40154714461e-15
1.65152888045e-15
4.78394629995e-15
7.96324868171e-15
1.11546559461e-14
1.43598100563e-14
1.75219990428e-14
2.06648851722e-14
2.37323051297e-14
2.66796962747e-14
2.94861712354e-14
3.20952632788e-14
3.44809418256e-14
3.65855268253e-14
3.83529727731e-14
3.97316432683e-14
4.07090281374e-14
4.13572733951e-14
4.18077750704e-14
4.21798553904e-14
4.25539802281e-14
4.29030376667e-14
-3.04399095072e-15
-4.55962539957e-15
-6.31851293484e-15
-7.54707934678e-15
-8.36769151864e-15
-9.0421889287e-15
-9.439249178e-15
-1.00959130173e-14
-1.23813517997e-14
-1.50372126674e-14
-1.69181311789e-14
-1.87829744319e-14
-2.03707224916e-14
-2.1217892728e-14
-2.20010470437e-14
-2.2452239658e-14
-2.262126873e-14
-2.21720658178e-14
-2.14621033959e-14
-2.05042955867e-14
-1.93329156571e-14
-1.79826206494e-14
-1.63595939967e-14
-1.45159802886e-14
-1.23255087402e-14
-9.99733995028e-15
-7.45177715335e-15
-4.72052896821e-15
-1.84963932615e-15
1.11372916977e-15
4.14288056305e-15
7.25728492571e-15
1.03970825814e-14
1.35336355174e-14
1.66410890912e-14
1.97085722989e-14
2.26978666522e-14
2.55960889602e-14
2.83364991442e-14
3.09089451075e-14
3.32409858058e-14
3.53021516789e-14
3.70234442832e-14
3.83700088092e-14
3.93218459136e-14
3.99545043547e-14
4.03926232836e-14
4.07548761468e-14
4.11187406119e-14
4.14580392347e-14
-5.05800243119e-15
-5.96662538537e-15
-6.8769822196e-15
-7.74716174637e-15
-8.55312849485e-15
-9.42237799431e-15
-1.04721664732e-14
-1.14777563292e-14
-1.31520155616e-14
-1.50248610521e-14
-1.68132149448e-14
-1.84239764383e-14
-1.98700460867e-14
-2.10432291511e-14
-2.20880098581e-14
-2.25439753694e-14
-2.26347577241e-14
-2.22226741651e-14
-2.15043390828e-14
-2.06114218275e-14
-1.9619432244e-14
-1.82057947304e-14
-1.65432470657e-14
-1.47031902121e-14
-1.25940590289e-14
-1.02412330661e-14
-7.90746357027e-15
-5.24346368424e-15
-2.47742835628e-15
3.72238610509e-16
3.30856478517e-15
6.28792008787e-15
9.29962119466e-15
1.23144666239e-14
1.53033691973e-14
1.8248834601e-14
2.11116573366e-14
2.38810405848e-14
2.64786009944e-14
2.89138477873e-14
3.11363206151e-14
3.30878903039e-14
3.47325839765e-14
3.60014336817e-14
3.690508664e-14
3.75036254181e-14
3.79193786818e-14
3.82631446839e-14
3.86095532239e-14
3.89331549613e-14
-6.52853750955e-15
-7.06661066139e-15
-7.41350057207e-15
-7.96879523209e-15
-8.61250271332e-15
-9.5148544847e-15
-1.05560387947e-14
-1.18339017316e-14
-1.33922006048e-14
-1.51935040064e-14
-1.68272460153e-14
-1.82586733218e-14
-1.96437485878e-14
-2.09210200862e-14
-2.17093279878e-14
-2.21288778772e-14
-2.20912709462e-14
-2.1877615489e-14
-2.13085270871e-14
-2.04528018674e-14
-1.93841773694e-14
-1.80707299531e-14
-1.64950443131e-14
-1.46660754011e-14
-1.2745619808e-14
-1.05747727496e-14
-8.2805658632e-15
-5.83836252114e-15
-3.2918852685e-15
-6.24037928593e-16
2.12500704702e-15
4.9430182578e-15
7.76775673072e-15
1.05977584278e-14
1.3392493467e-14
1.6124809638e-14
1.88079663316e-14
2.13573430946e-14
2.3791732208e-14
2.6051329024e-14
2.81177275149e-14
2.99351678073e-14
3.1462903213e-14
3.26498837768e-14
3.3491620704e-14
3.40481498107e-14
3.44333214219e-14
3.47537437581e-14
3.50757479189e-14
3.53763905454e-14
-7.52890198634e-15
-8.25622670011e-15
-7.72482590827e-15
-8.06884045247e-15
-8.57240984052e-15
-9.3873064034e-15
-1.04262780352e-14
-1.16755813532e-14
-1.3112240172e-14
-1.46700726161e-14
-1.62154896551e-14
-1.7712874086e-14
-1.91447227283e-14
-2.02028164463e-14
-2.08984473992e-14
-2.11804900263e-14
-2.13643000923e-14
-2.11510298029e-14
-2.05859556565e-14
-1.97806804388e-14
-1.86960525481e-14
-1.75127984463e-14
-1.62135023379e-14
-1.44258418053e-14
-1.27337738525e-14
-1.07414397107e-14
-8.67709015733e-15
-6.38821771358e-15
-4.0936752605e-15
-1.64338221472e-15
8.45987712932e-16
3.42428391411e-15
5.97452139254e-15
8.53253299532e-15
1.10624106696e-14
1.35771585879e-14
1.60144201239e-14
1.83649162677e-14
2.0579853643e-14
2.26442944659e-14
2.4521464362e-14
2.61782815318e-14
2.75538514783e-14
2.86344577266e-14
2.93936274538e-14
2.98970045614e-14
3.02470363113e-14
3.05389631303e-14
3.08314535554e-14
3.1104737313e-14
-7.90166344329e-15
-8.43976354009e-15
-7.31285689372e-15
-7.72294775774e-15
-8.20085178463e-15
-8.97897650073e-15
-9.9899185221e-15
-1.11955227599e-14
-1.25626322852e-14
-1.40597363632e-14
-1.55220006643e-14
-1.71573597356e-14
-1.84157003359e-14
-1.9277659388e-14
-1.9780259424e-14
-2.03338556271e-14
-2.02306787498e-14
-2.01085623876e-14
-1.95528963117e-14
-1.90719970318e-14
-1.80059133277e-14
-1.70627736097e-14
-1.57225818472e-14
-1.42551200028e-14
-1.26692506169e-14
-1.07717295224e-14
-8.9753340957e-15
-6.91001383209e-15
-4.88189362023e-15
-2.64688111673e-15
-5.53334893221e-16
1.75057175483e-15
4.01809844412e-15
6.3037261437e-15
8.57788255066e-15
1.08003079877e-14
1.29572864203e-14
1.50211521662e-14
1.6972341997e-14
1.88009083626e-14
2.04598996179e-14
2.19159306219e-14
2.31317296658e-14
2.40813800645e-14
2.47421536595e-14
2.51845761282e-14
2.54902222842e-14
2.57447002767e-14
2.60015517397e-14
2.62425178671e-14
-7.48248337917e-15
-7.27371259668e-15
-6.7923753547e-15
-7.05111488165e-15
-7.55417613579e-15
-8.32124050847e-15
-9.30762665791e-15
-1.04717053748e-14
-1.17741452633e-14
-1.31556990017e-14
-1.44549587275e-14
-1.57330279425e-14
-1.68226864415e-14
-1.77712875412e-14
-1.86897070912e-14
-1.91023664691e-14
-1.90282140705e-14
-1.8733953818e-14
-1.83888087598e-14
-1.77738491754e-14
-1.70647397543e-14
-1.61152493512e-14
-1.516561986e-14
-1.37589195341e-14
-1.23857048094e-14
-1.08075418573e-14
-9.24488840265e-15
-7.43982363632e-15
-5.75230429804e-15
-3.84804764006e-15
-1.91966061607e-15
2.93465558583e-17
1.97847740252e-15
3.94417046444e-15
5.90160737335e-15
7.81391296012e-15
9.6692005329e-15
1.14432496108e-14
1.31087118696e-14
1.46568649984e-14
1.60724965797e-14
1.73124331813e-14
1.83487456624e-14
1.91503744591e-14
1.97198649266e-14
2.00910299979e-14
2.0350856719e-14
2.05671937446e-14
2.07858693129e-14
2.09907936096e-14
-5.91364916577e-15
-6.17438670018e-15
-5.95498133783e-15
-6.18796088616e-15
-6.70100609481e-15
-7.46348317487e-15
-8.43364777508e-15
-9.56788158544e-15
-1.08479789535e-14
-1.23077313283e-14
-1.33656667711e-14
-1.45620563416e-14
-1.54400431538e-14
-1.62814051432e-14
-1.70722620768e-14
-1.74242484783e-14
-1.76817353187e-14
-1.76067021046e-14
-1.74321057798e-14
-1.6957093356e-14
-1.63650903665e-14
-1.54748846567e-14
-1.45439413806e-14
-1.33342162152e-14
-1.22431838543e-14
-1.08452133048e-14
-9.44217476075e-15
-7.99653796867e-15
-6.45103732065e-15
-4.97563787435e-15
-3.38107558718e-15
-1.75305021299e-15
-1.18134665883e-16
1.52428234742e-15
3.12529019011e-15
4.6786316301e-15
6.19303337663e-15
7.66801674258e-15
9.01231551322e-15
1.02893224707e-14
1.14326176305e-14
1.24485570065e-14
1.32890244454e-14
1.39466124024e-14
1.44062918483e-14
1.47099443496e-14
1.49197451622e-14
1.50957658109e-14
1.52725249665e-14
1.5438343484e-14
-4.73498413516e-15
-5.09598351646e-15
-4.88188100734e-15
-5.13898234213e-15
-5.68467482358e-15
-6.44714985563e-15
-7.41194711882e-15
-8.50731945337e-15
-9.69867541505e-15
-1.09221954662e-14
-1.20270869979e-14
-1.30690546148e-14
-1.39592009494e-14
-1.47159828584e-14
-1.53870197664e-14
-1.57997199767e-14
-1.60683499949e-14
-1.60946484095e-14
-1.60238792727e-14
-1.56319398909e-14
-1.51360300416e-14
-1.44801512089e-14
-1.3796070395e-14
-1.28240526139e-14
-1.19254482451e-14
-1.07498600136e-14
-9.61921931531e-15
-8.40200840807e-15
-7.24654399751e-15
-5.9689486776e-15
-4.75747828853e-15
-3.47071332529e-15
-2.19531814711e-15
-9.15491913461e-16
2.96452067572e-16
1.52797203924e-15
2.68331766894e-15
3.82450461187e-15
4.86668149816e-15
5.8481355539e-15
6.7465678172e-15
7.5245691868e-15
8.18286668137e-15
8.68110001319e-15
9.03519920004e-15
9.2626720357e-15
9.42095752036e-15
9.55257555217e-15
9.68512841563e-15
9.80926971079e-15
-3.30233195566e-15
-3.48042638976e-15
-3.6005456562e-15
-3.95612954235e-15
-4.55475962799e-15
-5.30407401977e-15
-6.29666702788e-15
-7.36489869093e-15
-8.5151574102e-15
-9.66587721474e-15
-1.07583824955e-14
-1.17730520741e-14
-1.26694548426e-14
-1.32901479145e-14
-1.41652071313e-14
-1.44792521501e-14
-1.48956784305e-14
-1.48605919029e-14
-1.48282597262e-14
-1.47141652099e-14
-1.41985707263e-14
-1.37793206099e-14
-1.30434690682e-14
-1.23138537514e-14
-1.16745651214e-14
-1.07095829955e-14
-9.87601925988e-15
-8.89572271577e-15
-7.93724570295e-15
-6.97203485234e-15
-6.08809854426e-15
-5.11404792627e-15
-4.20131850268e-15
-3.30442933808e-15
-2.45379459842e-15
-1.60925550063e-15
-8.05875175837e-16
-1.44778438255e-17
7.14096729779e-16
1.42227945738e-15
2.05112788455e-15
2.6005230813e-15
3.0536101395e-15
3.40012601481e-15
3.63855260704e-15
3.79516787193e-15
3.89843125497e-15
3.98403819082e-15
4.07018032941e-15
4.15037279403e-15
-1.86736446468e-15
-2.06849875339e-15
-2.26160992462e-15
-2.68836923073e-15
-3.37368812974e-15
-4.15726871808e-15
-5.14822667998e-15
-6.20420307409e-15
-7.34059788369e-15
-8.4729267061e-15
-9.57559363921e-15
-1.06166287769e-14
-1.15752093523e-14
-1.22846893916e-14
-1.29616517653e-14
-1.31846628145e-14
-1.35884489382e-14
-1.36116194297e-14
-1.35485636022e-14
-1.33870076797e-14
-1.31266777365e-14
-1.27418442959e-14
-1.23640595446e-14
-1.16786369207e-14
-1.1039223842e-14
-1.03895329764e-14
-9.7570963286e-15
-9.14974020231e-15
-8.50297427228e-15
-7.88182395433e-15
-7.29318669663e-15
-6.73691632656e-15
-6.18135985093e-15
-5.61561846365e-15
-5.08251437724e-15
-4.60143392555e-15
-4.08124076629e-15
-3.6503786645e-15
-3.21684627006e-15
-2.82432847347e-15
-2.47229790655e-15
-2.16132702196e-15
-1.91440317271e-15
-1.72394860021e-15
-1.59944824691e-15
-1.51871700931e-15
-1.46938734829e-15
-1.43026471727e-15
-1.3928567469e-15
-1.35835464551e-15
-4.32919123405e-16
-5.95580202293e-16
-8.80999295888e-16
-1.38349037239e-15
-2.18361633019e-15
-2.92155599195e-15
-3.9860654753e-15
-5.00898206237e-15
-6.18600095619e-15
-7.31782192191e-15
-8.45843566905e-15
-9.54857761467e-15
-1.0773324473e-14
-1.13183530883e-14
-1.19134303288e-14
-1.23949466045e-14
-1.2525119626e-14
-1.25834416182e-14
-1.25468668598e-14
-1.23735814516e-14
-1.21678866389e-14
-1.18055854525e-14
-1.14479086343e-14
-1.1079875639e-14
-1.05875053938e-14
-1.01384895572e-14
-9.74231974519e-15
-9.32880242424e-15
-8.97233342762e-15
-8.68661602369e-15
-8.38602276031e-15
-8.15016590763e-15
-7.93626466575e-15
-7.71005083305e-15
-7.53417274443e-15
-7.38086962236e-15
-7.25007221453e-15
-7.12871248621e-15
-7.00849532899e-15
-6.90943944464e-15
-6.80886652437e-15
-6.7437684252e-15
-6.68810094246e-15
-6.65477320185e-15
-6.63903807144e-15
-6.63663030693e-15
-6.64303430672e-15
-6.65291691343e-15
-6.66484287171e-15
-6.67718034635e-15
1.00115272014e-15
8.32897321331e-16
5.21213785982e-16
-2.46378978122e-16
-1.07364903218e-15
-1.67905675529e-15
-2.88423176927e-15
-3.94420571035e-15
-5.08617468515e-15
-6.21740256395e-15
-7.39396992043e-15
-8.34474610376e-15
-9.50439433052e-15
-1.03033829649e-14
-1.10508676336e-14
-1.11976752996e-14
-1.15530454862e-14
-1.1580292152e-14
-1.15305200207e-14
-1.14500051163e-14
-1.12131799422e-14
-1.09383427704e-14
-1.0649017438e-14
-1.03541958509e-14
-1.00477437435e-14
-9.82301551444e-15
-9.58781323031e-15
-9.38139179902e-15
-9.20163381445e-15
-9.19916651611e-15
-9.17886471837e-15
-9.30408969906e-15
-9.43524263014e-15
-9.57815067542e-15
-9.73070322735e-15
-9.91219152794e-15
-1.00902597613e-14
-1.02966992119e-14
-1.04902488616e-14
-1.06703457571e-14
-1.08505237066e-14
-1.10084919629e-14
-1.11570349646e-14
-1.12759863507e-14
-1.13684115458e-14
-1.14416543025e-14
-1.15020445449e-14
-1.15601460993e-14
-1.16227610622e-14
-1.1682014889e-14
2.1006913633e-15
2.00916850576e-15
1.4821937416e-15
7.11711654843e-16
-1.13988802657e-16
-8.75039354493e-16
-1.89685889909e-15
-3.02697029238e-15
-4.19021773307e-15
-5.10292753608e-15
-6.52597696516e-15
-7.63598968889e-15
-8.60183229908e-15
-9.40628092393e-15
-1.00537363785e-14
-1.04862700085e-14
-1.06643387756e-14
-1.07472984815e-14
-1.07521859617e-14
-1.06168060542e-14
-1.04183339111e-14
-1.01894545149e-14
-9.95317588598e-15
-9.75439427232e-15
-9.56532903658e-15
-9.45000858629e-15
-9.39787465796e-15
-9.38571840373e-15
-9.49397128252e-15
-9.69409495623e-15
-9.949365688e-15
-1.0302845387e-14
-1.07273136575e-14
-1.12100881238e-14
-1.16849917182e-14
-1.21919968994e-14
-1.27023581205e-14
-1.32064384885e-14
-1.36942416396e-14
-1.41597982021e-14
-1.45879765743e-14
-1.49771182413e-14
-1.53018352897e-14
-1.55693440674e-14
-1.57624257909e-14
-1.59056794656e-14
-1.60200954034e-14
-1.61244840832e-14
-1.62356651799e-14
-1.63423765589e-14
3.16038960614e-15
2.78196282152e-15
1.97286162868e-15
1.32524758222e-15
5.80215659196e-16
-2.67944940014e-16
-8.88358311767e-16
-2.17500303423e-15
-3.46823911191e-15
-4.41195299779e-15
-5.88995963002e-15
-7.03954459379e-15
-7.75069947029e-15
-8.671091262e-15
-9.30613981198e-15
-9.5284007057e-15
-9.93357243062e-15
-1.00630313185e-14
-1.00659596644e-14
-9.95132885619e-15
-9.74636060445e-15
-9.52503762761e-15
-9.24004609556e-15
-9.05480752071e-15
-8.95773163797e-15
-9.00535287165e-15
-9.09225363456e-15
-9.30597548186e-15
-9.57665179072e-15
-9.97947014896e-15
-1.0486250078e-14
-1.11056400353e-14
-1.18115966544e-14
-1.25701075521e-14
-1.33643986082e-14
-1.41689616851e-14
-1.49718540181e-14
-1.57510332663e-14
-1.65275277422e-14
-1.72531409376e-14
-1.79253203549e-14
-1.8530263029e-14
-1.90372341272e-14
-1.94372204866e-14
-1.97285547938e-14
-1.99390901122e-14
-2.01047109501e-14
-2.02551702343e-14
-2.04155005955e-14
-2.05689199027e-14
3.60993738227e-15
3.19315326011e-15
2.31248891231e-15
1.71263957399e-15
1.03712506417e-15
3.1327606077e-16
-3.57094322305e-16
-1.77001812571e-15
-3.05969144896e-15
-4.2316126892e-15
-5.55599642031e-15
-6.477042596e-15
-7.39787429268e-15
-8.09682224251e-15
-8.97743017542e-15
-9.23567040232e-15
-9.46893768264e-15
-9.57231005755e-15
-9.58656574301e-15
-9.4764284957e-15
-9.2817029647e-15
-9.04591992624e-15
-8.77619827085e-15
-8.56122994434e-15
-8.51975956645e-15
-8.57035040466e-15
-8.83141790733e-15
-9.09110962211e-15
-9.51679543428e-15
-1.01010066571e-14
-1.08673744453e-14
-1.17524348023e-14
-1.26976667346e-14
-1.3690238851e-14
-1.47238351408e-14
-1.58194018197e-14
-1.68904024275e-14
-1.79487947751e-14
-1.90003074632e-14
-1.99771122495e-14
-2.08674361595e-14
-2.16701412416e-14
-2.2340303512e-14
-2.28670001776e-14
-2.32522296834e-14
-2.35258817639e-14
-2.37402601871e-14
-2.39366826082e-14
-2.41446264529e-14
-2.43435088825e-14
3.64035010608e-15
3.43276014912e-15
2.48919521936e-15
1.88322473487e-15
1.29693288303e-15
5.45201944804e-16
-2.4338059559e-16
-1.55254801238e-15
-2.80696264653e-15
-3.89207774962e-15
-5.12357530489e-15
-6.12964328448e-15
-7.04331558175e-15
-7.87837723913e-15
-8.55516338888e-15
-8.96980821715e-15
-9.21293324105e-15
-9.31564169681e-15
-9.29681268855e-15
-9.16055568629e-15
-8.92697452543e-15
-8.76275371233e-15
-8.44319538834e-15
-8.27764973297e-15
-8.22949747717e-15
-8.33055301576e-15
-8.5311326854e-15
-8.93489189083e-15
-9.53939140904e-15
-1.02510450331e-14
-1.11222754316e-14
-1.2136294984e-14
-1.32854296059e-14
-1.45175792778e-14
-1.58154552983e-14
-1.71465296392e-14
-1.84832235551e-14
-1.97943940371e-14
-2.10629879035e-14
-2.22658695449e-14
-2.33716474969e-14
-2.43550004704e-14
-2.51789385682e-14
-2.5824112541e-14
-2.62892451777e-14
-2.66208871582e-14
-2.68809133908e-14
-2.71184270359e-14
-2.73716561534e-14
-2.76149267113e-14
3.43345509285e-15
3.26936269192e-15
2.30940954393e-15
1.83502501874e-15
1.40809007334e-15
7.01334259374e-16
-3.96581915649e-16
-1.44288511526e-15
-2.68087960902e-15
-3.79028947183e-15
-5.00289305181e-15
-5.98839243246e-15
-6.95832356622e-15
-7.75945867714e-15
-8.39863284594e-15
-8.8519548403e-15
-9.09806080734e-15
-9.20028413568e-15
-9.16624872385e-15
-9.00227614653e-15
-8.78603696066e-15
-8.52966973449e-15
-8.28497474672e-15
-8.15124254109e-15
-8.07434705391e-15
-8.13534916062e-15
-8.31926551625e-15
-8.75148889658e-15
-9.37934662198e-15
-1.01801657397e-14
-1.11823098945e-14
-1.23522721648e-14
-1.36676751849e-14
-1.50975437354e-14
-1.66055960889e-14
-1.81683847435e-14
-1.97292555949e-14
-2.12699305296e-14
-2.27528084304e-14
-2.41584684701e-14
-2.54517426772e-14
-2.65992676604e-14
-2.7554292869e-14
-2.82993688404e-14
-2.88376283724e-14
-2.92156822969e-14
-2.95174806674e-14
-2.97950066818e-14
-3.00912414495e-14
-3.03762173593e-14
3.0049029637e-15
2.75975703348e-15
1.9155055145e-15
1.58310568039e-15
1.08747976444e-15
2.85119535904e-16
-5.46317641361e-16
-1.60592659196e-15
-2.73015674745e-15
-3.68939141281e-15
-4.97905657951e-15
-5.99493931284e-15
-6.95406490592e-15
-7.73091671887e-15
-8.36623732182e-15
-8.82673801711e-15
-9.10829309091e-15
-9.22191249177e-15
-9.18812611769e-15
-9.03931604183e-15
-8.74962147207e-15
-8.5046729222e-15
-8.14677335296e-15
-8.0407221624e-15
-7.91005553764e-15
-7.938885425e-15
-8.11082189576e-15
-8.56108384154e-15
-9.19786090671e-15
-1.00826494611e-14
-1.11884937207e-14
-1.24331077875e-14
-1.392952108e-14
-1.54736747254e-14
-1.71459359827e-14
-1.88870695692e-14
-2.06190961305e-14
-2.2362617073e-14
-2.40315663904e-14
-2.5610338206e-14
-2.70726102666e-14
-2.83574429376e-14
-2.94309393101e-14
-3.02623384195e-14
-3.08618750091e-14
-3.12886196264e-14
-3.16268903866e-14
-3.19404672539e-14
-3.22770811777e-14
-3.26013928166e-14
2.1617342642e-15
2.03903202545e-15
1.19086386434e-15
8.7546800972e-16
2.93937975282e-16
-9.44963613181e-17
-1.00622876933e-15
-1.88871272557e-15
-2.95642114677e-15
-3.81133312234e-15
-5.05771008717e-15
-6.06284667705e-15
-7.01303058839e-15
-7.79393387438e-15
-8.43312614888e-15
-8.91929633722e-15
-9.24404878884e-15
-9.37046651103e-15
-9.32569780656e-15
-9.19855648767e-15
-8.9318058764e-15
-8.65226074202e-15
-8.37975616121e-15
-8.13906322184e-15
-7.91527133592e-15
-7.89687163382e-15
-7.99327367621e-15
-8.40927693255e-15
-9.05230713895e-15
-9.96774730059e-15
-1.10527469236e-14
-1.24043196913e-14
-1.39309803395e-14
-1.56276074429e-14
-1.74291532631e-14
-1.93015008594e-14
-2.12110990915e-14
-2.31008736758e-14
-2.49309419953e-14
-2.66645110286e-14
-2.82592948874e-14
-2.96645134169e-14
-3.08354402842e-14
-3.17362377839e-14
-3.23892313767e-14
-3.28539008948e-14
-3.32244646675e-14
-3.35700563763e-14
-3.39419633947e-14
-3.43017714323e-14
9.4982225119e-16
8.32614495697e-16
2.71070073704e-16
-6.43500943032e-17
-6.74077338498e-16
-1.00020210129e-15
-1.65094738955e-15
-2.20062997099e-15
-3.25421644177e-15
-4.13152328269e-15
-5.21023063375e-15
-6.19007696847e-15
-7.13513296567e-15
-7.91144864027e-15
-8.57089827455e-15
-9.09764819676e-15
-9.5073960924e-15
-9.612659491e-15
-9.64446111182e-15
-9.4955123045e-15
-9.2287689153e-15
-8.90327388469e-15
-8.60042788765e-15
-8.24868020121e-15
-8.02418241609e-15
-7.93327389807e-15
-7.97897733648e-15
-8.32484295019e-15
-8.87294951891e-15
-9.77201549102e-15
-1.08810787817e-14
-1.22415920365e-14
-1.38250418116e-14
-1.5576209102e-14
-1.74627537533e-14
-1.94420545725e-14
-2.14690296439e-14
-2.3503349383e-14
-2.5454390887e-14
-2.73072435048e-14
-2.90169492326e-14
-3.05198160206e-14
-3.17667555904e-14
-3.27273041645e-14
-3.34190479316e-14
-3.39153392451e-14
-3.43147315088e-14
-3.46892553343e-14
-3.50938377304e-14
-3.54849954187e-14
-6.03093904766e-16
-6.67817956332e-16
-1.03499983008e-15
-1.12167598026e-15
-1.59455988376e-15
-1.78678522156e-15
-2.50210093878e-15
-3.0086955601e-15
-3.75599325167e-15
-4.34585882176e-15
-5.40022785725e-15
-6.39271752915e-15
-7.30719769653e-15
-8.06208052432e-15
-8.73985549256e-15
-9.32056255853e-15
-9.68663887554e-15
-9.86141058058e-15
-9.90715352695e-15
-9.77414154549e-15
-9.58267666404e-15
-9.25560527919e-15
-8.95092182384e-15
-8.57430182295e-15
-8.31348707315e-15
-8.08572717245e-15
-8.12534553694e-15
-8.34854684164e-15
-8.88348122542e-15
-9.64897963903e-15
-1.07099893692e-14
-1.20221533201e-14
-1.35824600316e-14
-1.534714718e-14
-1.72726939348e-14
-1.93338298301e-14
-2.14306346728e-14
-2.35716547233e-14
-2.56093880709e-14
-2.75731353476e-14
-2.93728679222e-14
-3.09486173184e-14
-3.22543761003e-14
-3.32618867116e-14
-3.39820761562e-14
-3.45012320048e-14
-3.49206975337e-14
-3.53183306878e-14
-3.57486933689e-14
-3.61661904018e-14
-2.34977494188e-15
-2.31201796264e-15
-2.61706286059e-15
-2.47199130567e-15
-2.78133503992e-15
-3.07497158695e-15
-3.33874242146e-15
-3.78079058555e-15
-4.25991148954e-15
-4.94473010885e-15
-5.58236315684e-15
-6.67624135854e-15
-7.51727443824e-15
-8.22181498246e-15
-8.93041420166e-15
-9.47643357493e-15
-9.96531402617e-15
-1.01120181556e-14
-1.02854570065e-14
-1.0089280817e-14
-9.89349506867e-15
-9.58401847076e-15
-9.25348263599e-15
-8.86775275263e-15
-8.54949967484e-15
-8.34154312147e-15
-8.29416094718e-15
-8.45472031005e-15
-8.80205904789e-15
-9.52140914721e-15
-1.04947229579e-14
-1.17420287155e-14
-1.32463685554e-14
-1.49974630894e-14
-1.6952922776e-14
-1.90386823475e-14
-2.11941297597e-14
-2.3363099118e-14
-2.54840546083e-14
-2.75015796642e-14
-2.93500751945e-14
-3.09864831373e-14
-3.23288937214e-14
-3.33593231665e-14
-3.40958558801e-14
-3.46314320788e-14
-3.50670678554e-14
-3.5481191455e-14
-3.5931341741e-14
-3.63694304674e-14
-4.25639705279e-15
-4.13020703552e-15
-4.23852321792e-15
-4.08398303629e-15
-4.3990177072e-15
-4.41428711139e-15
-4.63652404625e-15
-4.88736648287e-15
-5.17300040326e-15
-5.64583117404e-15
-6.24004129334e-15
-7.03679648473e-15
-7.75047391823e-15
-8.3547635635e-15
-9.03937449974e-15
-9.61520819819e-15
-1.00819365781e-14
-1.02684442511e-14
-1.04176195019e-14
-1.03659143958e-14
-1.02929055838e-14
-9.96789235563e-15
-9.61293390713e-15
-9.23430767102e-15
-8.9265008329e-15
-8.69240634892e-15
-8.50194025084e-15
-8.59564281517e-15
-8.857205991e-15
-9.44740016899e-15
-1.02767516762e-14
-1.14540898585e-14
-1.28768277275e-14
-1.45734549478e-14
-1.64949896066e-14
-1.85558292022e-14
-2.07305038372e-14
-2.29365511877e-14
-2.50748039913e-14
-2.71271035178e-14
-2.90149193852e-14
-3.06674795808e-14
-3.20217220191e-14
-3.30605107336e-14
-3.38045135956e-14
-3.43440825265e-14
-3.47881076405e-14
-3.52136742979e-14
-3.56770791166e-14
-3.61290423759e-14
-6.44362946903e-15
-6.28138286885e-15
-6.21624939261e-15
-5.94276920971e-15
-5.96577610978e-15
-5.8836344188e-15
-5.83710199316e-15
-5.82646828119e-15
-5.97413509266e-15
-6.26000523456e-15
-6.78474671433e-15
-7.38707912933e-15
-7.99406057423e-15
-8.51315112479e-15
-9.11147831203e-15
-9.63132970192e-15
-1.01454982754e-14
-1.03683216473e-14
-1.05262028853e-14
-1.05387640617e-14
-1.04204701396e-14
-1.01527109651e-14
-9.88895288208e-15
-9.53078056278e-15
-9.23326334014e-15
-8.95481776948e-15
-8.80048260925e-15
-8.77211322239e-15
-8.95538786389e-15
-9.39694965836e-15
-1.01403639853e-14
-1.11569307454e-14
-1.24875659698e-14
-1.4092381284e-14
-1.59440235491e-14
-1.79657298947e-14
-2.00928502973e-14
-2.22714040063e-14
-2.44242967409e-14
-2.64748369447e-14
-2.83631990466e-14
-3.00112815708e-14
-3.13644785845e-14
-3.23983267843e-14
-3.31356362078e-14
-3.36731343153e-14
-3.41191534411e-14
-3.45486035425e-14
-3.5018311259e-14
-3.54770574881e-14
-8.86617514e-15
-8.64870514512e-15
-8.48612655769e-15
-8.03149812384e-15
-7.84536560767e-15
-7.70619445925e-15
-7.36592858891e-15
-7.07833934703e-15
-7.05200506361e-15
-7.13340962898e-15
-7.29327860825e-15
-7.75853019846e-15
-8.16380403297e-15
-8.6217975084e-15
-9.07928257835e-15
-9.58993741685e-15
-1.00244637189e-14
-1.03013383698e-14
-1.0455572106e-14
-1.04334356314e-14
-1.04249453089e-14
-1.03341111471e-14
-1.0103365266e-14
-9.78625524907e-15
-9.52036566293e-15
-9.23000714635e-15
-9.03135865853e-15
-8.94073260371e-15
-9.06693699242e-15
-9.38285063142e-15
-1.00302637004e-14
-1.08937819323e-14
-1.20949677237e-14
-1.35916456214e-14
-1.53100690735e-14
-1.72485326025e-14
-1.93273404197e-14
-2.14423855036e-14
-2.35715500801e-14
-2.55964678025e-14
-2.7462899844e-14
-2.90810089104e-14
-3.04141746482e-14
-3.14190261769e-14
-3.21372480358e-14
-3.26669660245e-14
-3.31085412737e-14
-3.35351214508e-14
-3.40038412351e-14
-3.44618745805e-14
-1.14840985444e-14
-1.12059907271e-14
-1.08242910226e-14
-1.03028526872e-14
-9.92735453475e-15
-9.44109272917e-15
-8.91759402314e-15
-8.40485923292e-15
-8.0849851472e-15
-7.92568986813e-15
-7.97117165484e-15
-8.06444321797e-15
-8.36769808641e-15
-8.65531557424e-15
-8.97871195195e-15
-9.34569102588e-15
-9.75937717342e-15
-1.00573715828e-14
-1.02454121901e-14
-1.03141808549e-14
-1.03785694002e-14
-1.02859382178e-14
-1.01491743621e-14
-9.97533222403e-15
-9.68806717024e-15
-9.41446260045e-15
-9.2261946263e-15
-9.12692055313e-15
-9.17664198888e-15
-9.39653251502e-15
-9.89099185269e-15
-1.06712486912e-14
-1.17278445867e-14
-1.30742577632e-14
-1.46698599162e-14
-1.6492925722e-14
-1.84467397932e-14
-2.05053794106e-14
-2.2554732381e-14
-2.45256437572e-14
-2.63383943992e-14
-2.7916420898e-14
-2.91991045095e-14
-3.0168248973e-14
-3.08614185904e-14
-3.13718403613e-14
-3.18025065451e-14
-3.22203128709e-14
-3.26788323793e-14
-3.3127372616e-14
-1.42607463983e-14
-1.39260414882e-14
-1.34361639991e-14
-1.27339172546e-14
-1.22585695971e-14
-1.14595234499e-14
-1.06978668552e-14
-9.85163535159e-15
-9.28787157603e-15
-8.83630016898e-15
-8.58677916914e-15
-8.49706847732e-15
-8.55680242538e-15
-8.67205059732e-15
-8.78510576663e-15
-9.09923884734e-15
-9.36632230694e-15
-9.59235981939e-15
-9.77561173865e-15
-9.90573941624e-15
-1.00285432412e-14
-1.00595890158e-14
-1.00081344345e-14
-9.86994482785e-15
-9.69053559896e-15
-9.51177926744e-15
-9.3316074663e-15
-9.22736071468e-15
-9.25401536478e-15
-9.40590181579e-15
-9.80592562323e-15
-1.04378311233e-14
-1.13642223103e-14
-1.25568693391e-14
-1.40134414587e-14
-1.56797640038e-14
-1.75306085578e-14
-1.94736931122e-14
-2.1429497705e-14
-2.3317949815e-14
-2.5055086731e-14
-2.65647408774e-14
-2.77856054704e-14
-2.87037011915e-14
-2.93598115964e-14
-2.98461403186e-14
-3.02577649327e-14
-3.06590452253e-14
-3.1098465545e-14
-3.15287550511e-14
-1.71916449877e-14
-1.67883624689e-14
-1.61999164833e-14
-1.52902779908e-14
-1.46145324464e-14
-1.34908983964e-14
-1.23975884533e-14
-1.14871218592e-14
-1.05169516357e-14
-9.74510159459e-15
-9.22959174893e-15
-8.8652713583e-15
-8.69914448856e-15
-8.5095239286e-15
-8.46606167498e-15
-8.62510897288e-15
-8.78604858083e-15
-8.96699691097e-15
-9.12374372388e-15
-9.27864692328e-15
-9.50307808782e-15
-9.51670435125e-15
-9.65475751268e-15
-9.60130275542e-15
-9.48873080611e-15
-9.36688947319e-15
-9.24434943059e-15
-9.19715648142e-15
-9.20400876823e-15
-9.34761633935e-15
-9.66514687271e-15
-1.02037021766e-14
-1.09960499314e-14
-1.20488218083e-14
-1.33491109176e-14
-1.48754887752e-14
-1.65742848659e-14
-1.83823033711e-14
-2.02263087775e-14
-2.20116083002e-14
-2.36535697431e-14
-2.50729402382e-14
-2.62171898438e-14
-2.70726704668e-14
-2.76837403445e-14
-2.81380180658e-14
-2.85254135279e-14
-2.89030450077e-14
-2.93152705318e-14
-2.97181714773e-14
-2.02190448936e-14
-1.97440593974e-14
-1.90224653234e-14
-1.79541859247e-14
-1.70724943436e-14
-1.57179459918e-14
-1.42941852392e-14
-1.30177286491e-14
-1.18623462675e-14
-1.07385172996e-14
-9.88180786311e-15
-9.16917030507e-15
-8.72197229617e-15
-8.31093569797e-15
-8.06724770938e-15
-8.03633086079e-15
-8.04655561084e-15
-8.11037227492e-15
-8.21241520947e-15
-8.34604972188e-15
-8.59774743797e-15
-8.78205489974e-15
-8.9273542279e-15
-9.03414579565e-15
-9.0370071282e-15
-9.03602856465e-15
-8.99726507438e-15
-8.9940171322e-15
-9.02022024335e-15
-9.18134437624e-15
-9.46820517168e-15
-9.93555593881e-15
-1.06229878241e-14
-1.15422886617e-14
-1.2681303623e-14
-1.40596481524e-14
-1.56074172319e-14
-1.72803185171e-14
-1.8984865877e-14
-2.06447237803e-14
-2.21711780808e-14
-2.34906873459e-14
-2.45443810394e-14
-2.53288090439e-14
-2.58887421464e-14
-2.63067213598e-14
-2.66642326242e-14
-2.70108821206e-14
-2.73869241504e-14
-2.77534701113e-14
-2.33344791482e-14
-2.27639609171e-14
-2.19415739252e-14
-2.0673535784e-14
-1.95140398805e-14
-1.77911753526e-14
-1.62316685447e-14
-1.46337033093e-14
-1.31113789912e-14
-1.16802752151e-14
-1.05433309645e-14
-9.50601585767e-15
-8.76288736539e-15
-8.03907203933e-15
-7.56115334707e-15
-7.27988666116e-15
-7.12932858515e-15
-7.08226821284e-15
-7.07737834258e-15
-7.27921522417e-15
-7.47948060454e-15
-7.71639766395e-15
-7.93843614488e-15
-8.15918702049e-15
-8.27436144687e-15
-8.38207457986e-15
-8.50303653918e-15
-8.58260955381e-15
-8.70493851561e-15
-8.88969597902e-15
-9.16820409474e-15
-9.58994183972e-15
-1.02148736275e-14
-1.10290168415e-14
-1.20624225472e-14
-1.327214977e-14
-1.46591778413e-14
-1.61766862158e-14
-1.7734184409e-14
-1.92528097467e-14
-2.06549109917e-14
-2.18569474908e-14
-2.28155409366e-14
-2.35234196847e-14
-2.4028664109e-14
-2.4405312651e-14
-2.47273502252e-14
-2.5037044415e-14
-2.536868662e-14
-2.56900571092e-14
-2.65201211335e-14
-2.59010246923e-14
-2.49240560135e-14
-2.34485541306e-14