/*--------------------------------*- C++ -*----------------------------------*\
| =========                 |                                                 |
| \\      /  F ield         | OpenFOAM: The Open Source CFD Toolbox           |
|  \\    /   O peration     | Version:  3.0.1                                 |
|   \\  /    A nd           | Web:      www.OpenFOAM.org                      |
|    \\/     M anipulation  |                                                 |
\*---------------------------------------------------------------------------*/
FoamFile
{
    version     2.0;
    format      ascii;
    class       surfaceScalarField;
    location    "50000";
    object      phi;
}
// * * * * * * * * * * * * * * * * * * * * * * * * * * * * * * * * * * * * * //

dimensions      [0 3 -1 0 0 0 0];

internalField   nonuniform List<scalar> 
4900
(
3.69043778647e-16
-3.69023534504e-16
7.12596816466e-16
-3.43597485371e-16
1.02567125248e-15
-3.13180283165e-16
1.30556371958e-15
-2.79860101056e-16
1.55068647513e-15
-2.45166872701e-16
1.76100880214e-15
-2.10535613068e-16
1.93749092236e-15
-1.76597203658e-16
2.08177935058e-15
-1.44250580281e-16
2.19539553491e-15
-1.13666081487e-16
2.28067908166e-15
-8.52671834001e-17
2.33989861429e-15
-5.92102531034e-17
2.37533882738e-15
-3.5476761479e-17
2.3892600833e-15
-1.41029382244e-17
2.38424715163e-15
5.04897460276e-18
2.36230600128e-15
2.19783617191e-17
2.32551476031e-15
3.68336793793e-17
2.27574628998e-15
4.97225585854e-17
2.21501190937e-15
6.07885360193e-17
2.14488437811e-15
7.01695314488e-17
2.06693013653e-15
7.80008306427e-17
1.98256569474e-15
8.4417946938e-17
1.89306778075e-15
8.95426453864e-17
1.79960632524e-15
9.35045848926e-17
1.70317431651e-15
9.64192022966e-17
1.60478391705e-15
9.83880683172e-17
1.50527120712e-15
9.95152320512e-17
1.40537195278e-15
9.98886727037e-17
1.30577002509e-15
9.95852013558e-17
1.20707779038e-15
9.86830826732e-17
1.10982802353e-15
9.72489453694e-17
1.0144988607e-15
9.53443671553e-17
9.21506395578e-16
9.30174288197e-17
8.31218468805e-16
9.03119800688e-17
7.43975740875e-16
8.72664889722e-17
6.60052954666e-16
8.39106519868e-17
5.79794978511e-16
8.02679165919e-17
5.03450490728e-16
7.63524290214e-17
4.31280992791e-16
7.21680982682e-17
3.63585149334e-16
6.77089495238e-17
3.00624667631e-16
6.29528155087e-17
2.42750419099e-16
5.78658035707e-17
1.90350473467e-16
5.23976833786e-17
1.43857287949e-16
4.64968337539e-17
1.0371856144e-16
4.01437841385e-17
7.03025341771e-17
3.34201901745e-17
4.37441206684e-17
2.65589504858e-17
2.38734763801e-17
1.98693219518e-17
1.02942937021e-17
1.35801486859e-17
2.50692699297e-18
7.78753862915e-18
2.50652663741e-18
3.43598150883e-16
-7.12669986193e-16
6.63466783604e-16
-6.63525171574e-16
9.5497553323e-16
-6.0476193688e-16
1.21545890443e-15
-5.40370194553e-16
1.44359771415e-15
-4.73406673327e-16
1.63933785041e-15
-4.06377554886e-16
1.80355799701e-15
-3.40837176642e-16
1.9378542855e-15
-2.78255483403e-16
2.04348166189e-15
-2.19340702424e-16
2.12252382449e-15
-1.64594182572e-16
2.17747768676e-15
-1.14199879268e-16
2.21024628312e-15
-6.83708640654e-17
2.22311835648e-15
-2.70577434156e-17
2.21832662631e-15
9.88196647461e-18
2.19779405517e-15
4.25561827001e-17
2.16346176055e-15
7.12038673474e-17
2.11707701773e-15
9.60581144989e-17
2.06051306928e-15
1.17404229972e-16
1.9952273556e-15
1.35486868817e-16
1.92267586122e-15
1.50586630475e-16
1.8441836566e-15
1.62963608363e-16
1.76092004766e-15
1.72854847554e-16
1.6739496716e-15
1.80498143254e-16
1.58420318212e-15
1.86117307345e-16
1.49269188677e-15
1.89923017599e-16
1.4000983474e-15
1.92094505736e-16
1.3071591633e-15
1.92819986125e-16
1.21452195002e-15
1.92240505829e-16
1.12273177906e-15
1.90506660956e-16
1.03231043908e-15
1.8774434512e-16
9.43604512013e-16
1.84064892573e-16
8.57067983332e-16
1.79570488382e-16
7.73045184126e-16
1.74346844859e-16
6.91854531917e-16
1.6846650315e-16
6.13764252596e-16
1.61987428994e-16
5.39085957227e-16
1.54954228338e-16
4.68051927171e-16
1.47392805374e-16
4.00917706989e-16
1.39312182158e-16
3.3791501224e-16
1.30698482994e-16
2.79369070877e-16
1.21511740288e-16
2.25539282974e-16
1.11682516431e-16
1.76826001079e-16
1.01117244507e-16
1.3359519843e-16
8.97157351146e-17
9.62938133689e-17
7.74439568414e-17
6.52468886465e-17
6.44610847268e-17
4.05899061615e-17
5.12187609485e-17
2.21465069895e-17
3.83123863258e-17
9.5451474324e-18
2.61815987567e-17
2.32207848693e-18
1.5010485421e-17
4.82872006445e-18
3.13197275422e-16
-1.02580630392e-15
6.04757746476e-16
-9.55043233384e-16
8.7043970821e-16
-8.7047755929e-16
1.10777268297e-15
-7.77693636281e-16
1.31556809575e-15
-6.81289648133e-16
1.49379930968e-15
-5.84679672203e-16
1.6430610196e-15
-4.90403941318e-16
1.76497546433e-15
-4.00154325666e-16
1.8608881621e-15
-3.15264029468e-16
1.93266260463e-15
-2.3636961863e-16
1.98233231472e-15
-1.63866023412e-16
2.01189695602e-15
-9.79212382717e-17
2.02337170037e-15
-3.84993696291e-17
2.01872176124e-15
1.4570016775e-17
1.99972605883e-15
6.14980024693e-17
1.96822339881e-15
1.02654135329e-16
1.92588038968e-15
1.38353927508e-16
1.87423269234e-15
1.6900910097e-16
1.81476028689e-15
1.9498686241e-16
1.74866386658e-15
2.16672735401e-16
1.67714996131e-15
2.3443413391e-16
1.60134231783e-15
2.48636440293e-16
1.5222547677e-15
2.59615699068e-16
1.4406743075e-15
2.67679086949e-16
1.35744481468e-15
2.73150147077e-16
1.27332959667e-15
2.76279132214e-16
1.18875434889e-15
2.77309190513e-16
1.10450394722e-15
2.76480118197e-16
1.02105579572e-15
2.73992124567e-16
9.38821788877e-16
2.70022667758e-16
8.58186178813e-16
2.64738196177e-16
7.79492518938e-16
2.58279191529e-16
7.03064687732e-16
2.50771304497e-16
6.29200627744e-16
2.42317617516e-16
5.5816787109e-16
2.33003843492e-16
4.90217785811e-16
2.2289105892e-16
4.2559028335e-16
2.12016648668e-16
3.64540447698e-16
2.00393835026e-16
3.07228698343e-16
1.87999844294e-16
2.5395068425e-16
1.74779443543e-16
2.05002326269e-16
1.60633192689e-16
1.60699527711e-16
1.45424827801e-16
1.21431943906e-16
1.2901314901e-16
8.75221758983e-17
1.11350117819e-16
5.93095592632e-17
9.26714286852e-17
3.69018788243e-17
7.36282221437e-17
2.014097941e-17
5.50744110604e-17
8.68415178397e-18
3.76376231891e-17
2.11407648838e-18
2.15800569976e-17
6.94313580269e-18
2.79857205549e-16
-1.3056414664e-15
5.40385805255e-16
-1.21549636554e-15
7.77700827735e-16
-1.10783760626e-15
9.8959536703e-16
-9.89606374573e-16
1.17501854234e-15
-8.6675701065e-16
1.33391215619e-15
-7.43636598964e-16
1.46691943238e-15
-6.23465319485e-16
1.57523943999e-15
-5.08528421931e-16
1.66031942465e-15
-4.00359117838e-16
1.72385008785e-15
-2.99869867868e-16
1.76760649889e-15
-2.07588339973e-16
1.79340142851e-15
-1.23679250418e-16
1.80306646011e-15
-4.81287208258e-17
1.79837771786e-15
1.92793019078e-17
1.78102910245e-15
7.88805684687e-17
1.75251494078e-15
1.31126067222e-16
1.71446914746e-15
1.76450390815e-16
1.66819062688e-15
2.15324844383e-16
1.61496244584e-15
2.48242102784e-16
1.5559484854e-15
2.75725660988e-16
1.49215081757e-15
2.9820989165e-16
1.42456253476e-15
3.16202107053e-16
1.35404852396e-15
3.30104795379e-16
1.28143864452e-15
3.40315852777e-16
1.20733402018e-15
3.4722863954e-16
1.1324217358e-15
3.51172699886e-16
1.05724877016e-15
3.5247061241e-16
9.82313083231e-16
3.51403290172e-16
9.08054532759e-16
3.48234834173e-16
8.34866834146e-16
3.43189003636e-16
7.6310430548e-16
3.3647872165e-16
6.93093441362e-16
3.28277505204e-16
6.25111610194e-16
3.18746055152e-16
5.59428637748e-16
3.08013698112e-16
4.96259427374e-16
2.96184154548e-16
4.35816252076e-16
2.83335018837e-16
3.78353153489e-16
2.69516055097e-16
3.24021494988e-16
2.54738844794e-16
2.73042379842e-16
2.38979175408e-16
2.25650678648e-16
2.22163130485e-16
1.82112589259e-16
2.04166232602e-16
1.42716288335e-16
1.84815379561e-16
1.0780009508e-16
1.63933944968e-16
7.76851638535e-17
1.41465394414e-16
5.26434822158e-17
1.17716312234e-16
3.27562078488e-17
9.35176534719e-17
1.78755816555e-17
6.99504234145e-17
7.70663480604e-18
4.78049572007e-17
1.87566199473e-18
2.74102985382e-17
8.818630647e-18
2.45209289134e-16
-1.55076145728e-15
4.73404702984e-16
-1.44364466727e-15
6.8126907189e-16
-1.31564782329e-15
8.66731433811e-16
-1.17505455869e-15
1.02885095631e-15
-1.02889068342e-15
1.16759184319e-15
-8.82405040449e-16
1.28350711984e-15
-7.39423980305e-16
1.37766383061e-15
-6.02717063133e-16
1.45138478089e-15
-4.7407540206e-16
1.50616538214e-15
-3.54632846794e-16
1.54360381152e-15
-2.45001366077e-16
1.56532673234e-15
-1.4537190783e-16
1.57296593248e-15
-5.57402932233e-17
1.56810363602e-15
2.41611733734e-17
1.55223744074e-15
9.47809971235e-17
1.52678730372e-15
1.56626369808e-16
1.49296391161e-15
2.10222202712e-16
1.45213294499e-15
2.56185748147e-16
1.40531950861e-15
2.95092049578e-16
1.35355162033e-15
3.27540929319e-16
1.29775842981e-15
3.54081009952e-16
1.23870185862e-15
3.75281190378e-16
1.17712401081e-15
3.91644966825e-16
1.11385721216e-15
4.03660553706e-16
1.04930472246e-15
4.11764250437e-16
9.84033351016e-16
4.1636826923e-16
9.18579031231e-16
4.17861304612e-16
8.53393213804e-16
4.16563253913e-16
7.8882094498e-16
4.12788525015e-16
7.2519430291e-16
4.06795960616e-16
6.62816008472e-16
3.98838923921e-16
6.01980376368e-16
3.89119578954e-16
5.42912650499e-16
3.77824639227e-16
4.85811629108e-16
3.65104975843e-16
4.30899104793e-16
3.5108529794e-16
3.78363998575e-16
3.35858450706e-16
3.2838799777e-16
3.19479016401e-16
2.81174180982e-16
3.01961450838e-16
2.36881134119e-16
2.83273485933e-16
1.95717937988e-16
2.63327252792e-16
1.57904322851e-16
2.4197406696e-16
1.23715372362e-16
2.19010930434e-16
9.34078386076e-17
1.94230092608e-16
6.72985895092e-17
1.67573834528e-16
4.55978616061e-17
1.39414811413e-16
2.83703065681e-17
1.10743397387e-16
1.54832562109e-17
8.28340273211e-17
6.67804133246e-18
5.66123887075e-17
1.62629018549e-18
3.24624006468e-17
1.0444806741e-17
2.10592461665e-16
-1.76108897535e-15
4.06374502202e-16
-1.63950097846e-15
5.84708052344e-16
-1.49382376364e-15
7.43637037509e-16
-1.33396266974e-15
8.8236685598e-16
-1.167640753e-15
1.00088059736e-15
-1.00092324918e-15
1.09962961868e-15
-8.38207999126e-16
1.17955481923e-15
-6.82642893951e-16
1.24181141881e-15
-5.36316499416e-16
1.28773285561e-15
-4.00533054459e-16
1.31874564711e-15
-2.75981213107e-16
1.33615022695e-15
-1.629293955e-16
1.34146899669e-15
-6.12479990852e-17
1.33630020412e-15
2.93736803837e-17
1.32183367916e-15
1.09387017412e-16
1.29916415381e-15
1.79334228393e-16
1.26949543994e-15
2.3991082548e-16
1.23395221941e-15
2.91776798559e-16
1.19342958073e-15
3.35650762475e-16
1.14872409122e-15
3.7217178523e-16
1.10076972432e-15
4.02056398535e-16
1.05013900714e-15
4.25864253513e-16
9.97525619646e-16
4.44237123637e-16
9.43483169064e-16
4.57682032429e-16
8.8848860159e-16
4.66735241146e-16
8.33068890416e-16
4.71852192372e-16
7.77466042751e-16
4.73448058496e-16
7.22141733309e-16
4.71909439038e-16
6.67347368298e-16
4.67573860548e-16
6.13464951307e-16
4.60751443855e-16
5.60563323625e-16
4.51701110771e-16
5.09011227509e-16
4.40675162111e-16
4.5895384761e-16
4.27870486127e-16
4.10585187969e-16
4.13460895174e-16
3.64100581707e-16
3.97582268948e-16
3.1963412078e-16
3.80334591778e-16
2.77346171362e-16
3.61778401197e-16
2.37381519238e-16
3.41930251692e-16
1.99892462055e-16
3.20752662958e-16
1.65069980608e-16
2.98144273068e-16
1.33114327694e-16
2.73935710681e-16
1.04229412062e-16
2.4789765285e-16
7.86645922259e-17
2.19799757761e-16
5.66707154198e-17
1.89586346307e-16
3.83872938346e-17
1.57691648438e-16
2.38869683904e-17
1.25244919313e-16
1.30417491205e-17
9.36790927058e-17
5.62715410414e-18
6.4027691511e-17
1.37030846391e-18
3.67174863452e-17
1.1815229678e-17
1.76603900561e-16
-1.93763162192e-15
3.408934493e-16
-1.80369685333e-15
4.90385658125e-16
-1.64317280869e-15
6.23455303291e-16
-1.46698672957e-15
7.393983791e-16
-1.28356140244e-15
8.38173925817e-16
-1.09967673794e-15
9.20155390567e-16
-9.20194535923e-16
9.86142243824e-16
-7.48627102023e-16
1.03714955419e-15
-5.87296748154e-16
1.07432081614e-15
-4.37659549494e-16
1.09890720965e-15
-3.00517658854e-16
1.11213082159e-15
-1.76124784539e-16
1.11527890071e-15
-6.43587016981e-17
1.10956832251e-15
3.51265751428e-17
1.09614476964e-15
1.22854648995e-16
1.07598843853e-15
1.99451132152e-16
1.05021359179e-15
2.65728006857e-16
1.01963071309e-15
3.2239383272e-16
9.85061638324e-16
3.70246478847e-16
9.47232849353e-16
4.1002416604e-16
9.06816965883e-16
4.42495897074e-16
8.64360721138e-16
4.68325470456e-16
8.20324410936e-16
4.88195199345e-16
7.7531090146e-16
5.02705253563e-16
7.29649319345e-16
5.12420485765e-16
6.83683771572e-16
5.17836289023e-16
6.37690756494e-16
5.1941880046e-16
5.92028197393e-16
5.1759807745e-16
5.46792588046e-16
5.12731837369e-16
5.02325732812e-16
5.05171171516e-16
4.5883323444e-16
4.95191037527e-16
4.16463045548e-16
4.83055061727e-16
3.7535835272e-16
4.68983226922e-16
3.35666874434e-16
4.53159748761e-16
2.97521949707e-16
4.35733420042e-16
2.61038788736e-16
4.16810671771e-16
2.26371551817e-16
3.96455162207e-16
1.936348937e-16
3.74679346293e-16
1.62947544899e-16
3.51442370509e-16
1.34454717666e-16
3.26631159686e-16
1.08335168822e-16
3.00060720409e-16
8.47492223064e-17
2.71479726879e-16
6.39098421149e-17
2.40642149587e-16
4.59951316777e-17
2.07498168371e-16
3.11557743539e-17
1.72541720098e-16
1.93866215445e-17
1.37015804669e-16
1.05857955242e-17
1.02479105977e-16
4.56907085271e-18
7.0045414809e-17
1.11368844686e-18
4.0172095837e-17
1.29289365499e-17
1.44268963668e-16
-2.08174301442e-15
2.78324468251e-16
-1.93782596833e-15
4.00178491339e-16
-1.76501716294e-15
5.0851994686e-16
-1.57530577664e-15
6.02685863656e-16
-1.37771329856e-15
6.82612323519e-16
-1.17960320071e-15
7.48593689555e-16
-9.86183792412e-16
8.01295024745e-16
-8.01332430569e-16
8.41586123311e-16
-6.27554168985e-16
8.70359416512e-16
-4.66486778648e-16
8.88803147948e-16
-3.18916555645e-16
8.97910468679e-16
-1.85189817157e-16
8.9877886849e-16
-6.51799066906e-17
8.92457801313e-16
4.14955543511e-17
8.79929736732e-16
1.35426827446e-16
8.62099074756e-16
2.17326974766e-16
8.39796458388e-16
2.88053388151e-16
8.13782808227e-16
3.48415752891e-16
7.84717692425e-16
3.99286067175e-16
7.53225488915e-16
4.41490977036e-16
7.1980188026e-16
4.75838317131e-16
6.84958729238e-16
5.03122688476e-16
6.491080657e-16
5.24018336423e-16
6.12654094124e-16
5.39203930575e-16
5.75778476436e-16
5.49276683368e-16
5.38851120829e-16
5.54788731099e-16
5.02051168911e-16
5.56238552035e-16
4.65596018558e-16
5.54074084937e-16
4.29681234397e-16
5.48693169701e-16
3.94370569764e-16
5.40443692215e-16
3.5988632275e-16
5.29652832965e-16
3.26354073354e-16
5.16578356116e-16
2.93873628975e-16
5.01455036524e-16
2.62570761526e-16
4.84474517696e-16
2.32525122179e-16
4.65791489756e-16
2.03809706957e-16
4.45513423976e-16
1.7654734456e-16
4.23710416588e-16
1.50852282658e-16
4.0039221356e-16
1.26776828427e-16
3.75509546716e-16
1.04472719091e-16
3.48940491264e-16
8.40500372119e-17
3.2048432991e-16
6.56621206485e-17
2.89877094695e-16
4.94375099114e-17
2.56860411073e-16
3.55421646129e-17
2.21397657388e-16
2.40470670882e-17
1.8403496734e-16
1.4952159093e-17
1.46109414084e-16
8.16044419553e-18
1.09271096621e-16
3.52095159951e-18
7.46878051454e-17
8.57268833937e-19
4.28356520726e-17
1.37861865966e-17
1.13679456096e-16
-2.19535709827e-15
2.19352187468e-16
-2.04342781534e-15
3.15272871533e-16
-1.86088655161e-15
4.00353909281e-16
-1.66038011314e-15
4.74054813116e-16
-1.45142060889e-15
5.36290345186e-16
-1.2418555541e-15
5.8727138044e-16
-1.03718711055e-15
6.27518285741e-16
-8.41601379806e-16
6.57730494752e-16
-6.57761609084e-16
6.78709441659e-16
-4.87439728472e-16
6.91362901586e-16
-3.31527391544e-16
6.96577345129e-16
-1.90360411774e-16
6.95258709549e-16
-6.38219096873e-17
6.88292818281e-16
4.84822038593e-17
6.76504946251e-16
1.47251312158e-16
6.60699918694e-16
2.33176863715e-16
6.41538618364e-16
3.0723830299e-16
6.19672226925e-16
3.70300381415e-16
5.95621984515e-16
4.23310895641e-16
5.69951689074e-16
4.67184067203e-16
5.43050637409e-16
5.02754416989e-16
5.15262452936e-16
5.30892968342e-16
4.86878519558e-16
5.52323441344e-16
4.58303014389e-16
5.67799861857e-16
4.29622658264e-16
5.77933698711e-16
4.01111445758e-16
5.83321077664e-16
3.72882843823e-16
5.84487166466e-16
3.45075440426e-16
5.81899791094e-16
3.17768716724e-16
5.75980738214e-16
2.91116092923e-16
5.67102112479e-16
2.65162767977e-16
5.55586821939e-16
2.40018435482e-16
5.41713485227e-16
2.15747195377e-16
5.25722316139e-16
1.92425175467e-16
5.07809996665e-16
1.70065281645e-16
4.88130496608e-16
1.48789498107e-16
4.66798916072e-16
1.28614842179e-16
4.43874666466e-16
1.09662062167e-16
4.19369715344e-16
9.19491476701e-17
3.93226287767e-16
7.55697111147e-17
3.65315053144e-16
6.06400089896e-17
3.35426275329e-16
4.72309014987e-17
3.03282568654e-16
3.5474381532e-17
2.68624042762e-16
2.54419348341e-17
2.3142784495e-16
1.71913312483e-17
1.92290191514e-16
1.06801359802e-17
1.52618711516e-16
5.82810777402e-18
1.14124119456e-16
2.51471543937e-18
7.800264532e-17
6.13145364093e-19
4.47378795787e-17
1.43994343134e-17
8.52910676958e-17
-2.28067634468e-15
1.64564932735e-16
-2.1225847522e-15
2.36374273051e-16
-1.93266873509e-15
2.99859652029e-16
-1.72391401561e-15
3.54606586006e-16
-1.50619721513e-15
4.00503488374e-16
-1.28777010701e-15
4.37650544693e-16
-1.07436280464e-15
4.66438799656e-16
-8.70423536741e-16
4.87409097756e-16
-6.78751502758e-16
5.01211710808e-16
-5.01244551692e-16
5.08582409549e-16
-3.38851626832e-16
5.10230280022e-16
-1.91962026602e-16
5.06870260418e-16
-6.04495780916e-17
4.99308419533e-16
5.60969948905e-17
4.88072396849e-16
1.58353146538e-16
4.74085581849e-16
2.47236139043e-16
4.57738944874e-16
3.23605426822e-16
4.39571399918e-16
3.88473828468e-16
4.20038081714e-16
4.42816026043e-16
3.99524143024e-16
4.87617462097e-16
3.78473739585e-16
5.23819860906e-16
3.57018438869e-16
5.52276777776e-16
3.35527054591e-16
5.73832614191e-16
3.14138054412e-16
5.89210768386e-16
2.92900953735e-16
5.99096487595e-16
2.72094653969e-16
6.04135971585e-16
2.51701676057e-16
6.04853284385e-16
2.31854762033e-16
6.01756244186e-16
2.12580680321e-16
5.95266627526e-16
1.93933174603e-16
5.85775032959e-16
1.7590405567e-16
5.73603563806e-16
1.58580248097e-16
5.59050310068e-16
1.41969739184e-16
5.4234567252e-16
1.26099848087e-16
5.23691243129e-16
1.10996322563e-16
5.03243881336e-16
9.66915745124e-17
4.81114933366e-16
8.31947587146e-17
4.57359226019e-16
7.05817139659e-17
4.3198922337e-16
5.88382207753e-17
4.0493707127e-16
4.80792148887e-17
3.76070314389e-16
3.83359816536e-17
3.4516792365e-16
2.9674299798e-17
3.1194812208e-16
2.21499229981e-17
2.76151753829e-16
1.58004057576e-17
2.37775678308e-16
1.06237092132e-17
1.97459420721e-16
6.58412131389e-18
1.56661755556e-16
3.58492607693e-18
1.17122450689e-16
1.5424118439e-18
8.00436676779e-17
3.74685420611e-19
4.59058360461e-17
1.47743689516e-17
5.92106922664e-17
-2.33994461042e-15
1.14178183043e-16
-2.1775431741e-15
1.63850234287e-16
-1.98237243095e-15
2.07574947558e-16
-1.7676645538e-15
2.44980827717e-16
-1.5436363109e-15
2.75946741344e-16
-1.31874266309e-15
3.00494209886e-16
-1.09893605165e-15
3.18882395527e-16
-8.88849002659e-16
3.31500678114e-16
-6.91407224626e-16
3.38834806117e-16
-5.08603576018e-16
3.41447265827e-16
-3.41456138491e-16
3.39889140962e-16
-1.90409054358e-16
3.3472327065e-16
-5.53081577251e-17
3.26591851431e-16
6.42026998183e-17
3.16016424309e-16
1.68912402597e-16
3.03611004349e-16
2.59712899957e-16
2.89743837643e-16
3.37497536636e-16
2.74868156368e-16
4.03358824913e-16
2.59372546825e-16
4.58330394173e-16
2.43553291329e-16
5.03456047512e-16
2.27681177282e-16
5.39712858211e-16
2.11933075223e-16
5.68017585824e-16
1.96442360268e-16
5.89247921409e-16
1.81452357812e-16
6.04208109904e-16
1.66990238501e-16
6.13579114367e-16
1.53109161663e-16
6.18040181488e-16
1.39837388658e-16
6.18148307915e-16
1.27187395869e-16
6.14414117192e-16
1.15170621745e-16
6.07289275255e-16
1.03785687398e-16
5.97168856675e-16
9.30219411623e-17
5.8437993146e-16
8.28430110461e-17
5.69218390749e-16
7.32525721953e-17
5.5192348344e-16
6.42670018824e-17
5.32690184995e-16
5.58395860977e-17
5.11670424521e-16
4.79462503881e-17
4.88970708837e-16
4.0677406832e-17
4.64650281524e-16
3.39602377751e-17
4.38702233756e-16
2.78383062116e-17
4.11062312781e-16
2.23215489981e-17
3.81588021976e-16
1.74300930838e-17
3.50055078582e-16
1.32027714252e-17
3.16181713319e-16
9.63820012564e-18
2.79714557674e-16
6.74195914603e-18
2.40674090297e-16
4.4580037995e-18
1.99736247414e-16
2.73147936907e-18
1.58391388511e-16
1.47529478208e-18
1.18380312842e-16
6.32925703595e-19
8.08894790732e-17
1.53532992745e-19
4.63860387164e-17
1.49280458106e-17
3.54616522328e-17
-2.37540656998e-15
6.83482693419e-17
-2.21032268492e-15
9.79089837036e-17
-2.01197059388e-15
1.23667298273e-16
-1.79343571639e-15
1.45365982831e-16
-1.56536909401e-15
1.62875892805e-16
-1.33618861573e-15
1.76089273957e-16
-1.11215625264e-15
1.85163638552e-16
-8.97930264547e-16
1.90347773944e-16
-6.96610875194e-16
1.91962898773e-16
-5.10244039275e-16
1.90412573989e-16
-3.39894512737e-16
1.86103283315e-16
-1.86097334026e-16
1.7936723988e-16
-4.87085912288e-17
1.70849233254e-16
7.27336539474e-17
1.6090108862e-16
1.78912557775e-16
1.49897870086e-16
2.70692377385e-16
1.38273455836e-16
3.49133900924e-16
1.26338477329e-16
4.15303409608e-16
1.14386790927e-16
4.70301497605e-16
1.02658409017e-16
5.15206481775e-16
9.13517322885e-17
5.51040586882e-16
8.06116767607e-17
5.78781943342e-16
7.05519856546e-17
5.99333514677e-16
6.1204291588e-17
6.13532320962e-16
5.26782696715e-17
6.22129865224e-16
4.49213597345e-17
6.25796138494e-16
3.79293050496e-17
6.25124554843e-16
3.17001736584e-17
6.20642772458e-16
2.61793863225e-17
6.12811658642e-16
2.12996906986e-17
6.02033181049e-16
1.7034620778e-17
5.88643229623e-16
1.33286727502e-17
5.72933582817e-16
1.01016519907e-17
5.55137594758e-16
7.35740455661e-18
5.35452081677e-16
5.01828481574e-18
5.14019484837e-16
3.0520789026e-18
4.90941971527e-16
1.42533227135e-18
4.66270356858e-16
1.23989470193e-19
4.39996975303e-16
-8.57442717895e-19
4.12049944077e-16
-1.55640435614e-18
3.82280561558e-16
-1.9508036157e-18
3.50465109199e-16
-2.08545043059e-18
3.16321100934e-16
-1.98269791976e-18
2.79609990262e-16
-1.68527107602e-18
2.40377103814e-16
-1.28055452134e-18
1.99330327269e-16
-8.58782666273e-19
1.57971137077e-16
-4.93876787269e-19
1.18016496973e-16
-2.22404188952e-19
8.06177693756e-17
-5.67317589492e-20
4.62200596333e-17
1.48713272886e-17
1.40841012435e-17
-2.38937586966e-15
2.70438931322e-17
-2.22317951191e-15
3.85096516584e-17
-2.02338235499e-15
4.81247479965e-17
-1.80307098623e-15
5.57276826037e-17
-1.57301473008e-15
6.12034308225e-17
-1.34150819726e-15
6.43133778252e-17
-1.11530738321e-15
6.51534897835e-17
-8.98777851793e-16
6.38191800411e-17
-6.95276547798e-16
6.04573379946e-17
-5.069007833e-16
5.53121803012e-17
-3.3473113986e-16
4.87207013998e-17
-1.79352711382e-16
4.08259183999e-17
-4.0816264987e-17
3.20488604606e-17
8.14972509616e-17
2.26697426031e-17
1.88212591297e-16
1.30645445518e-17
2.80275652276e-16
3.45538843007e-18
3.58692043933e-16
-5.85108747008e-18
4.24604311134e-16
-1.46327131161e-17
4.79120354366e-16
-2.27569827289e-17
5.23345634108e-16
-3.00668288922e-17
5.58359950958e-16
-3.64547535233e-17
5.85180773667e-16
-4.18597149694e-17
6.04746562751e-16
-4.62424237487e-17
6.17930767914e-16
-4.96087609865e-17
6.25511095009e-16
-5.20200298874e-17
6.28188181697e-16
-5.35152102044e-17
6.26584886508e-16
-5.41256483726e-17
6.21245425691e-16
-5.39116481472e-17
6.12638102839e-16
-5.30273877234e-17
6.01157249423e-16
-5.15049718912e-17
5.87157450919e-16
-4.949204973e-17
5.70919950424e-16
-4.70528685864e-17
5.52685679671e-16
-4.42491917622e-17
5.32638426455e-16
-4.11519044505e-17
5.10917455355e-16
-3.78254219522e-17
4.87618457624e-16
-3.43293615054e-17
4.62783659085e-16
-3.07264138513e-17
4.36397422324e-16
-2.7059419047e-17
4.08383661849e-16
-2.33655719371e-17
3.78591757194e-16
-1.96945272344e-17
3.46796954022e-16
-1.60827994031e-17
3.12726193217e-16
-1.2627774842e-17
2.76155099014e-16
-9.40716419424e-18
2.3715828986e-16
-6.54573451841e-18
1.96468511024e-16
-4.15698678779e-18
1.55580723641e-16
-2.30408280661e-18
1.16164940861e-16
-1.00577994627e-18
7.93200382364e-17
-2.48894658895e-19
4.54609500384e-17
1.46225885941e-17
-5.05266550136e-18
-2.38432752689e-15
-9.87866763025e-18
-2.21830147104e-15
-1.45737957987e-17
-2.0186462954e-15
-1.92999573242e-17
-1.79835709338e-15
-2.41804674865e-17
-1.56814151037e-15
-2.94013906033e-17
-1.33632729641e-15
-3.5158259132e-17
-1.10959424389e-15
-4.15260883468e-17
-8.92458586056e-16
-4.85049791831e-17
-6.88295886898e-16
-5.60653817457e-17
-4.99255359488e-16
-6.4183790286e-17
-3.26579814805e-16
-7.27179108347e-17
-1.70834213404e-16
-8.14816710751e-17
-3.20462051823e-17
-9.02898938393e-17
9.02998259182e-17
-9.89601749002e-17
1.96856114295e-16
-1.07252597999e-16
2.88514954736e-16
-1.14952592603e-16
3.6636790884e-16
-1.21870650451e-16
4.31531637477e-16
-1.27873744392e-16
4.851360752e-16
-1.32835504239e-16
5.2831658636e-16
-1.36654763726e-16
5.62183647973e-16
-1.39272950492e-16
5.87789097011e-16
-1.40655690688e-16
6.06110165869e-16
-1.40800636272e-16
6.18054828794e-16
-1.3973430757e-16
6.24433886135e-16
-1.37527214776e-16
6.25967874928e-16
-1.34256744544e-16
6.23299648351e-16
-1.30006773815e-16
6.16985182868e-16
-1.24888665033e-16
6.07508706104e-16
-1.1902659368e-16
5.95281679646e-16
-1.1251247953e-16
5.80654904709e-16
-1.0548541625e-16
5.63906026404e-16
-9.80788053491e-17
5.45267066924e-16
-9.03779170368e-17
5.24924532311e-16
-8.24675653424e-17
5.03011876678e-16
-7.44543553802e-17
4.79611833893e-16
-6.64362172751e-17
4.54758780725e-16
-5.847813586e-17
4.28433640394e-16
-5.06580150609e-17
4.00556913444e-16
-4.30465134839e-17
3.70974808306e-16
-3.57193983019e-17
3.3946590558e-16
-2.87649746468e-17
3.05768364702e-16
-2.22848368699e-17
2.69679210716e-16
-1.64297158147e-17
2.31300470992e-16
-1.13437296123e-17
1.913853757e-16
-7.16594961332e-18
1.51404614545e-16
-3.96305294594e-18
1.12960890909e-16
-1.72944960594e-18
7.70864113092e-17
-4.26537755442e-19
4.41583705801e-17
1.4195890066e-17
-2.19588904134e-17
-2.36232224112e-15
-4.25310914194e-17
-2.19777970341e-15
-6.15262724799e-17
-1.9997007288e-15
-7.89136031182e-17
-1.780989881e-15
-9.48075213885e-17
-1.55225107545e-15
-1.09409174848e-16
-1.32183861187e-15
-1.22879386317e-16
-1.09615531029e-15
-1.35450616837e-16
-8.7992615732e-16
-1.47241710703e-16
-6.76498758728e-16
-1.58341325448e-16
-4.88073152165e-16
-1.68903421299e-16
-3.16015279837e-16
-1.78899210098e-16
-1.60889494699e-16
-1.88199093269e-16
-2.2664005137e-17
-1.96854414751e-16
9.89579096756e-17
-2.04738559661e-16
2.0472988881e-16
-2.11641925398e-16
2.95499515598e-16
-2.1754708733e-16
3.72295824374e-16
-2.22301930432e-16
4.3629770032e-16
-2.25811244781e-16
4.88642820479e-16
-2.2799477954e-16
5.30488449083e-16
-2.28786565882e-16
5.62961468225e-16
-2.28159381447e-16
5.87143314562e-16
-2.26079886971e-16
6.04042378722e-16
-2.22590922481e-16
6.14578560895e-16
-2.17744999294e-16
6.19600212101e-16
-2.11639596711e-16
6.19850926527e-16
-2.04353343643e-16
6.16003480202e-16
-1.9600261762e-16
6.08622622354e-16
-1.86692016931e-16
5.98209034995e-16
-1.76579201367e-16
5.8517947026e-16
-1.65800634308e-16
5.69887772451e-16
-1.5450121127e-16
5.52616304016e-16
-1.42817261071e-16
5.33593648521e-16
-1.30884478498e-16
5.1299452969e-16
-1.18827524166e-16
4.90948930237e-16
-1.06758331619e-16
4.67535921042e-16
-9.47869987391e-17
4.42781657062e-16
-8.30030155849e-17
4.16660618604e-16
-7.15394078352e-17
3.89087133695e-16
-6.04772149238e-17
3.59908985042e-16
-4.99175559337e-17
3.28910695656e-16
-3.99960513727e-17
2.95844219241e-16
-3.0851127601e-17
2.60531897815e-16
-2.2659213568e-17
2.23106103345e-16
-1.56036442222e-17
1.84333163438e-16
-9.84174161074e-18
1.45643839622e-16
-5.43727016632e-18
1.08555186056e-16
-2.37034629079e-18
7.40203583774e-17
-5.84234944744e-19
4.23723948162e-17
1.36117977188e-17
-3.68038346862e-17
-2.32546465867e-15
-7.11752871926e-17
-2.16344005202e-15
-1.02685387077e-16
-1.96823284203e-15
-1.31166819435e-16
-1.7525530321e-15
-1.56651696608e-16
-1.5267788931e-15
-1.79357183616e-16
-1.29918548142e-15
-1.9947932236e-16
-1.07599297728e-15
-2.17348972555e-16
-8.62081015493e-16
-2.33177569801e-16
-6.60669765253e-16
-2.4721795049e-16
-4.74066026192e-16
-2.59696982322e-16
-3.03610786601e-16
-2.70684081713e-16
-1.49913628835e-16
-2.8026503715e-16
-1.30613746098e-17
-2.8851519556e-16
1.07243767081e-16
-2.95503530339e-16
2.11640699812e-16
-3.01081869848e-16
3.01090088315e-16
-3.0523717563e-16
3.76498369004e-16
-3.07945977051e-16
4.39043002205e-16
-3.09179065137e-16
4.89876567374e-16
-3.08887543699e-16
5.30172699448e-16
-3.07023951356e-16
5.61077641216e-16
-3.03581484174e-16
5.83690454671e-16
-2.98573967229e-16
5.99024218788e-16
-2.92025889114e-16
6.08043853871e-16
-2.84019154382e-16
6.11605693754e-16
-2.74643841815e-16
6.10488527998e-16
-2.64020457768e-16
6.05363148844e-16
-2.52239185477e-16
5.96844962091e-16
-2.39425396856e-16
5.85435147705e-16
-2.2576137725e-16
5.71553038943e-16
-2.1141855241e-16
5.5555599083e-16
-1.96558587838e-16
5.37737138665e-16
-1.81318413067e-16
5.18326990093e-16
-1.65820351598e-16
4.97497713588e-16
-1.50225543336e-16
4.75368409219e-16
-1.34693509776e-16
4.52006658462e-16
-1.19347297153e-16
4.2743560679e-16
-1.04291751802e-16
4.01624899557e-16
-8.96976758484e-17
3.74483389492e-16
-7.56597504282e-17
3.4586557161e-16
-6.23055611261e-17
3.15564114874e-16
-4.98099798796e-17
2.83346401697e-16
-3.83439491216e-17
2.49063589246e-16
-2.81136789615e-17
2.12878832418e-16
-1.93484771904e-17
1.75563467205e-16
-1.22030228403e-17
1.38496855292e-16
-6.73893856861e-18
1.03094994425e-16
-2.93882908622e-18
7.02207897845e-17
-7.2514540955e-19
4.01584033861e-17
1.28870919259e-17
-4.9702370117e-17
-2.2758068486e-15
-9.60337581073e-17
-2.11713900869e-15
-1.38394718162e-16
-1.92592065744e-15
-1.7648012144e-16
-1.71451666051e-15
-2.10258719877e-16
-1.49304444488e-15
-2.39923060223e-16
-1.26955643248e-15
-2.65738658402e-16
-1.05022210828e-15
-2.88066087068e-16
-8.39786159621e-16
-3.07243640392e-16
-6.41511641534e-16
-3.2360316885e-16
-4.57733019685e-16
-3.37489597912e-16