/*--------------------------------*- C++ -*----------------------------------*\
| =========                 |                                                 |
| \\      /  F ield         | OpenFOAM: The Open Source CFD Toolbox           |
|  \\    /   O peration     | Version:  3.0.1                                 |
|   \\  /    A nd           | Web:      www.OpenFOAM.org                      |
|    \\/     M anipulation  |                                                 |
\*---------------------------------------------------------------------------*/
FoamFile
{
    version     2.0;
    format      ascii;
    class       volSymmTensorField;
    location    "50000";
    object      R;
}
// * * * * * * * * * * * * * * * * * * * * * * * * * * * * * * * * * * * * * //

dimensions      [0 2 -2 0 0 0 0];

internalField   nonuniform List<symmTensor> 
2500
(
(0.000662493857945 2.57184195613e-05 2.57176302695e-05 0.000662493857856 -5.57173627826e-18 0.000662493858034)
(0.00067610857152 7.59011322498e-05 2.58626106567e-05 0.000676108571433 -5.57694031489e-18 0.000676108571607)
(0.000700840683153 0.000123540995872 2.61108959693e-05 0.00070084068307 3.35520597286e-17 0.000700840683237)
(0.000734129098607 0.000168623029341 2.64123868041e-05 0.000734129098528 6.70188645294e-17 0.000734129098686)
(0.000773645757333 0.000211194222952 2.67172694229e-05 0.00077364575726 1.01988859544e-16 0.000773645757406)
(0.000817449272447 0.000251369274892 2.69809370838e-05 0.000817449272381 1.26218139113e-16 0.000817449272513)
(0.00086402194168 0.000289319971261 2.71661632637e-05 0.000864021941622 1.44191220416e-16 0.000864021941738)
(0.000912237284433 0.000325256437267 2.7243754142e-05 0.000912237284384 1.37711324581e-16 0.000912237284483)
(0.000961297029427 0.000359407517529 2.71925088024e-05 0.000961297029386 1.10508947924e-16 0.000961297029467)
(0.00101066124064 0.000392003788468 2.69988840388e-05 0.00101066124061 1.09789224216e-16 0.00101066124067)
(0.00105998320573 0.000423264189758 2.66564974169e-05 0.00105998320571 7.50562150349e-17 0.00105998320576)
(0.00110905353161 0.000453386199421 2.61654872572e-05 0.0011090535316 3.58830665126e-17 0.00110905353163)
(0.00115775430681 0.00048253916701 2.55317244634e-05 0.0011577543068 -1.6585064797e-17 0.00115775430681)
(0.00120602266465 0.000510860368548 2.47658849601e-05 0.00120602266465 -8.51250528387e-17 0.00120602266464)
(0.00125382256734 0.000538453345812 2.38824142764e-05 0.00125382256735 -1.53761023174e-16 0.00125382256733)
(0.00130112355068 0.000565388091952 2.2898438131e-05 0.0013011235507 -2.24535502672e-16 0.00130112355066)
(0.00134788524047 0.000591702641053 2.18326808159e-05 0.00134788524049 -2.91922937162e-16 0.00134788524045)
(0.00139404655451 0.000617405623486 2.07044545277e-05 0.00139404655454 -3.57630733857e-16 0.00139404655449)
(0.00143951859686 0.000642479363912 1.95327713923e-05 0.00143951859689 -4.17091156469e-16 0.00143951859683)
(0.00148418032585 0.000666883136096 1.83356162665e-05 0.00148418032589 -4.68004897598e-16 0.00148418032582)
(0.00152787613885 0.000690556233538 1.712939862e-05 0.00152787613889 -5.09341904891e-16 0.00152787613882)
(0.00157041456943 0.000713420566678 1.59285858426e-05 0.00157041456947 -5.42164916678e-16 0.00157041456939)
(0.00161156733935 0.000735382547924 1.47455052021e-05 0.00161156733939 -5.60886611064e-16 0.00161156733931)
(0.00165106804474 0.000756334062497 1.35902921572e-05 0.00165106804478 -5.64696483624e-16 0.0016510680447)
(0.00168860977573 0.00077615234475 1.24709560349e-05 0.00168860977577 -5.55895182227e-16 0.00168860977569)
(0.00172384095979 0.000794698572269 1.1393533535e-05 0.00172384095983 -5.35141073177e-16 0.00172384095975)
(0.00175635866519 0.000811814950955 1.03623004063e-05 0.00175635866523 -5.01502745466e-16 0.00175635866515)
(0.00178569848238 0.000827319982919 9.38001678873e-06 0.00178569848242 -4.57283444319e-16 0.00178569848234)
(0.00181131989197 0.000841001470542 8.44818481695e-06 0.001811319892 -4.02904304793e-16 0.00181131989193)
(0.00183258569703 0.000852606593648 7.56730310084e-06 0.00183258569706 -3.37048495213e-16 0.00183258569699)
(0.0018487336027 0.00086182806856 6.73710718684e-06 0.00184873360273 -2.60434227734e-16 0.00184873360267)
(0.00185883732188 0.000868284906139 5.95678925235e-06 0.00185883732191 -1.75578401322e-16 0.00185883732185)
(0.0018617536309 0.000871495551761 5.2251944784e-06 0.00186175363093 -8.54457199386e-17 0.00186175363087)
(0.00185605060509 0.000870840100063 4.54099406688e-06 0.00185605060511 8.45420957574e-18 0.00185605060506)
(0.00183991101908 0.000865506703634 3.90283827807e-06 0.0018399110191 1.03201854436e-16 0.00183991101906)
(0.00181100431767 0.000854415157448 3.30949479926e-06 0.00181100431769 1.95515202311e-16 0.00181100431765)
(0.00176632280096 0.000836108251377 2.75998222957e-06 0.00176632280098 2.83349352034e-16 0.00176632280094)
(0.00170198864187 0.000808600666076 2.25371325403e-06 0.00170198864189 3.61277867815e-16 0.00170198864186)
(0.00161307347128 0.000769183064059 1.79067299667e-06 0.00161307347129 4.24695101351e-16 0.00161307347127)
(0.00149356933151 0.000714220030234 1.3716768008e-06 0.00149356933152 4.67303295361e-16 0.0014935693315)
(0.00133689138683 0.00063913114794 9.98783264702e-07 0.00133689138684 4.80432564982e-16 0.00133689138683)
(0.00113780642786 0.000539205284771 6.75959105968e-07 0.00113780642786 4.54934739293e-16 0.00113780642786)
(0.0008973870271 0.000412927876977 4.09926879594e-07 0.000897387027102 3.83781757405e-16 0.000897387027098)
(0.000631891768441 0.000269891336967 2.10067814988e-07 0.000631891768443 2.72080772344e-16 0.00063189176844)
(0.000379245045115 0.000138071958884 8.35130699477e-08 0.000379245045115 1.49040261449e-16 0.000379245045114)
(0.000185093970961 5.00942572358e-05 2.31803795989e-08 0.000185093970961 5.7300347926e-17 0.000185093970961)
(6.96987934e-05 1.16095019273e-05 3.97132440438e-09 6.96987934e-05 1.39571849077e-17 6.96987934e-05)
(1.83143929503e-05 1.46866259264e-06 3.45054666408e-10 1.83143929503e-05 1.84374449221e-18 1.83143929503e-05)
(3.310588558e-06 8.9109186191e-08 1.21564206543e-11 3.310588558e-06 1.16206804484e-19 3.310588558e-06)
(6.41358349087e-06 2.97549613885e-08 1.32026010316e-12 6.41358349087e-06 4.01501643737e-20 6.41358349087e-06)
(0.00067610765672 2.58633248146e-05 7.58988236624e-05 0.000676107656633 -2.74747622064e-17 0.000676107656807)
(0.000689705659213 7.63281802083e-05 7.632608702e-05 0.000689705659128 -2.85067100062e-17 0.000689705659299)
(0.000714407448907 0.000124234197738 7.70592948216e-05 0.000714407448825 4.74253090489e-17 0.000714407448989)
(0.00074765192208 0.000169563498921 7.79527326442e-05 0.000747651922003 1.14678340916e-16 0.000747651922157)
(0.000787105419847 0.000212357821338 7.88611685331e-05 0.000787105419775 1.97644617325e-16 0.000787105419918)
(0.00083081549374 0.000252724812659 7.96540094367e-05 0.000830815493676 2.55838150177e-16 0.000830815493804)
(0.000877249818253 0.000290828709719 8.02216553657e-05 0.000877249818197 3.03907893855e-16 0.00087724981831)
(0.000925266181593 0.000326872923671 8.04775061629e-05 0.000925266181545 3.24216544562e-16 0.000925266181642)
(0.000974051716647 0.000361081420118 8.0357972792e-05 0.000974051716607 2.89820303608e-16 0.000974051716686)
(0.00102305476299 0.000393682319654 7.98216340891e-05 0.00102305476296 2.40611819433e-16 0.00102305476302)
(0.00107192093161 0.000424894745592 7.88479228732e-05 0.00107192093159 1.41536467577e-16 0.00107192093164)
(0.00112043785178 0.000454918910516 7.74353950325e-05 0.00112043785177 1.50749388298e-17 0.00112043785179)
(0.00116848951727 0.000483929128111 7.55995581805e-05 0.00116848951727 -1.6205565875e-16 0.00116848951728)
(0.00121601962959 0.000512069382055 7.33702737125e-05 0.0012160196296 -3.48411951846e-16 0.00121601962959)
(0.00126300282979 0.000539451086738 7.07888173206e-05 0.0012630028298 -5.34698919949e-16 0.00126300282978)
(0.00130942263997 0.00056615266946 6.79047431926e-05 0.00130942263998 -7.3467212691e-16 0.00130942263995)
(0.00135525501473 0.000592220591257 6.47727327155e-05 0.00135525501475 -9.26135026833e-16 0.00135525501471)
(0.001400456509 0.000617671415278 6.14496112473e-05 0.00140045650903 -1.11242147736e-15 0.00140045650897)
(0.00144495615652 0.000642494530669 5.79916927647e-05 0.00144495615655 -1.28080371658e-15 0.00144495615649)
(0.00148865021614 0.00066665515951 5.44525714117e-05 0.00148865021617 -1.42541390408e-15 0.00148865021611)
(0.00153139898629 0.00069009730256 5.08814259715e-05 0.00153139898633 -1.53444241197e-15 0.00153139898626)
(0.00157302491921 0.00071274632108 4.73218537896e-05 0.00157302491925 -1.61256264834e-15 0.00157302491918)
(0.00161331129116 0.000734510893744 4.38112064832e-05 0.0016133112912 -1.66925954226e-15 0.00161331129112)
(0.00165200070213 0.000755284120195 4.03803669255e-05 0.00165200070217 -1.68699100153e-15 0.00165200070209)
(0.00168879268327 0.000774943566892 3.70538882044e-05 0.00168879268331 -1.66159168199e-15 0.00168879268323)
(0.00172333967096 0.000793350044561 3.38504062467e-05 0.001723339671 -1.60361046242e-15 0.00172333967092)
(0.00175524054786 0.000810344874192 3.07832411076e-05 0.0017552405479 -1.50442238419e-15 0.00175524054782)
(0.00178403083252 0.000825745321556 2.78611095951e-05 0.00178403083256 -1.36638144454e-15 0.00178403083248)
(0.00180916839375 0.000839337744967 2.50888859663e-05 0.00180916839378 -1.19998352917e-15 0.00180916839371)
(0.00183001324072 0.000850867792337 2.24683608909e-05 0.00183001324075 -1.00274906015e-15 0.00183001324069)
(0.00184579945279 0.000860026654792 1.99989642548e-05 0.00184579945283 -7.78184442877e-16 0.00184579945276)
(0.00185559661722 0.000866431898205 1.76784298796e-05 0.00185559661725 -5.29650323822e-16 0.00185559661719)
(0.00185825719771 0.000869600660179 1.55033920995e-05 0.00185825719774 -2.6342811591e-16 0.00185825719769)
(0.00185234507414 0.000868911913864 1.34699135971e-05 0.00185234507416 1.34123601827e-17 0.00185234507412)
(0.0018360392653 0.000863552929144 1.15739525158e-05 0.00183603926532 2.93368711686e-16 0.00183603926528)
(0.00180700629389 0.000852442935977 9.81178540962e-06 0.00180700629391 5.67289986878e-16 0.00180700629387)
(0.00176223693947 0.000834124626439 8.18041352881e-06 0.00176223693948 8.258397037e-16 0.00176223693945)
(0.0016978541887 0.000806613366578 6.67799647294e-06 0.00169785418871 1.05602464132e-15 0.00169785418869)
(0.00160893447293 0.000767201992778 5.30438855686e-06 0.00160893447294 1.2430728861e-15 0.00160893447292)
(0.0014894815969 0.000712260361941 4.06190950999e-06 0.00148948159691 1.36816273615e-15 0.00148948159689)
(0.0013329345111 0.000637220051939 2.95657420303e-06 0.00133293451111 1.4066316742e-15 0.00133293451109)
(0.00113410265833 0.000537395924663 2.0000659152e-06 0.00113410265833 1.33140314068e-15 0.00113410265832)
(0.000894121804 0.000411322205781 1.21223971814e-06 0.000894121804002 1.12214948017e-15 0.000894121803998)
(0.000629304055242 0.000268647909356 6.20788540393e-07 0.000629304055243 7.94553085439e-16 0.000629304055241)
(0.000377521112295 0.000137322732153 2.46609958309e-07 0.000377521112295 4.34675982957e-16 0.000377521112294)
(0.000184192208973 4.97863607826e-05 6.84056159751e-08 0.000184192208973 1.66908339969e-16 0.000184192208973)
(6.93483394727e-05 1.1532917889e-05 1.17146566162e-08 6.93483394727e-05 4.06148638635e-17 6.93483394726e-05)
(1.82218103205e-05 1.45873358589e-06 1.01769283576e-09 1.82218103205e-05 5.36122872863e-18 1.82218103205e-05)
(3.29522297779e-06 8.85410308116e-08 3.58674176294e-11 3.29522297779e-06 3.37821272773e-19 3.29522297779e-06)
(6.39121250358e-06 2.95997615837e-08 3.89991424651e-12 6.39121250358e-06 1.16764753728e-19 6.39121250358e-06)
(0.000700838279433 2.61114816008e-05 0.000123537337293 0.00070083827935 -4.56468895431e-17 0.000700838279517)
(0.000714405955127 7.70610190297e-05 0.000124230870358 0.000714405955045 -6.89901150311e-17 0.000714405955209)
(0.0007390536211 0.000125428153532 0.000125425395002 0.000739053621021 -1.10057832583e-17 0.000739053621179)
(0.00077222161028 0.000171191165408 0.000126890109502 0.000772221610206 7.28827958491e-17 0.000772221610354)
(0.000811567763953 0.00021438285002 0.000128394063338 0.000811567763885 1.69911927587e-16 0.000811567764022)
(0.000855121039567 0.000255097971655 0.000129728080009 0.000855121039505 2.51723112307e-16 0.000855121039629)
(0.000901323550933 0.00029348641193 0.000130714853287 0.000901323550879 3.09363999494e-16 0.000901323550988)
(0.00094900481908 0.000329738289571 0.000131212387384 0.000949004819034 3.4859489817e-16 0.000949004819126)
(0.000997325012987 0.000364067284847 0.000131114353228 0.000997325012949 3.29641324307e-16 0.000997325013025)
(0.00104571000345 0.000396695444776 0.000130349119464 0.00104571000342 2.27223793837e-16 0.00104571000348)
(0.00109378967719 0.000427840560495 0.000128878056711 0.00109378967717 7.57619414897e-17 0.00109378967721)
(0.00114134403254 0.000457706225095 0.000126693187667 0.00114134403253 -1.26602901075e-16 0.00114134403255)
(0.00118825805923 0.000486474375061 0.000123814122665 0.00118825805923 -3.89053482574e-16 0.00118825805924)
(0.00123448489771 0.000514300068903 0.000120284270042 0.00123448489771 -6.60884292789e-16 0.0012344848977)
(0.00128001627952 0.000541308256207 0.0001161664236 0.00128001627953 -9.44803061152e-16 0.00128001627951)
(0.00132485919699 0.000567592285685 0.000111537932107 0.00132485919701 -1.24948684804e-15 0.00132485919698)
(0.00136901784677 0.000593213879494 0.000106485724812 0.00136901784679 -1.54836960082e-15 0.00136901784675)
(0.00141248000828 0.000618204271347 0.000101101486852 0.0014124800083 -1.8297361199e-15 0.00141248000826)
(0.00145520710473 0.000642566182654 9.54772566577e-05 0.00145520710476 -2.08409038599e-15 0.0014552071047)
(0.00149712724345 0.000666276298612 8.97016602515e-05 0.00149712724348 -2.30675734004e-15 0.00149712724342)
(0.00153813054921 0.000689287906765 8.38569222302e-05 0.00153813054924 -2.48529805177e-15 0.00153813054917)
(0.00157806610181 0.000711533379205 7.80167123052e-05 0.00157806610184 -2.61406322408e-15 0.00157806610177)
(0.00161673977611 0.000732926201352 7.22448118433e-05 0.00161673977615 -2.68991961446e-15 0.00161673977608)
(0.00165391226418 0.000753362277718 6.65945250915e-05 0.00165391226422 -2.71307465039e-15 0.00165391226414)
(0.00168929653316 0.000772720262597 6.1108720739e-05 0.0016892965332 -2.67579579511e-15 0.00168929653312)
(0.00172255393112 0.000790860664603 5.5820367591e-05 0.00172255393116 -2.57592387924e-15 0.00172255393108)
(0.00175328808118 0.000807623446412 5.07534256045e-05 0.00175328808122 -2.41845590148e-15 0.00175328808114)
(0.00178103558127 0.000822823774105 4.59239620672e-05 0.0017810355813 -2.20301815518e-15 0.00178103558123)
(0.00180525232463 0.000836245445289 4.13413818506e-05 0.00180525232466 -1.93081920394e-15 0.00180525232459)
(0.00182529393963 0.000847631321653 3.70096823949e-05 0.00182529393966 -1.60958886481e-15 0.00182529393959)
(0.00184038837326 0.000856669774117 3.29286680742e-05 0.00184038837329 -1.24633622761e-15 0.00184038837323)
(0.00184959796209 0.000862975664261 2.90950812087e-05 0.00184959796212 -8.47386352919e-16 0.00184959796206)
(0.00185176740726 0.000866063659832 2.55036266981e-05 0.00185176740729 -4.2232769066e-16 0.00185176740723)
(0.00184545290961 0.000865310598766 2.21478849506e-05 0.00184545290964 1.97948846247e-17 0.00184545290959)
(0.00182882652441 0.000859902056895 1.90211228959e-05 0.00182882652443 4.67287514741e-16 0.00182882652439)
(0.00179954929305 0.000848756165605 1.61170287753e-05 0.00179954929306 9.0653358305e-16 0.00179954929303)
(0.00175460908712 0.000830415398287 1.34304141824e-05 0.00175460908714 1.3196401477e-15 0.0017546090871)
(0.00169013033373 0.000802896380908 1.0957956343e-05 0.00169013033375 1.68910109714e-15 0.00169013033372)
(0.00160119837569 0.000763496018659 8.69910405753e-06 0.0016011983757 1.98996431879e-15 0.00160119837568)
(0.00148183900096 0.000708594078806 6.65736486104e-06 0.00148183900097 2.18986945822e-15 0.00148183900095)
(0.00132553571093 0.000633644708307 4.84234206427e-06 0.00132553571094 2.25083977176e-15 0.00132553571093)
(0.00112717782868 0.000534011641735 3.27298357389e-06 0.00112717782868 2.12914216903e-15 0.00112717782868)
(0.000888019187013 0.000408320586052 1.9816640122e-06 0.000888019187016 1.79288246378e-15 0.000888019187011)
(0.000624470940181 0.000266325882739 1.01349440248e-06 0.000624470940182 1.26780197964e-15 0.00062447094018)
(0.000374304023657 0.000135925598938 4.02039173314e-07 0.000374304023657 6.9248376435e-16 0.000374304023656)
(0.000182510598085 4.92130058089e-05 1.11381235771e-07 0.000182510598085 2.65538065234e-16 0.000182510598085)
(6.8695052392e-05 1.13904380791e-05 1.90597259241e-08 6.8695052392e-05 6.45596848415e-17 6.8695052392e-05)
(1.80492408138e-05 1.44026823495e-06 1.65531619052e-09 1.80492408138e-05 8.51922758125e-18 1.80492408138e-05)
(3.26656637435e-06 8.74838812633e-08 5.83815160646e-11 3.26656637435e-06 5.3719505145e-19 3.26656637435e-06)
(6.34939592881e-06 2.93103751639e-08 6.36164600225e-12 6.34939592881e-06 1.86080017878e-19 6.34939592881e-06)
(0.00073412500984 2.64128145949e-05 0.00016861826041 0.000734125009761 -6.83615395212e-17 0.000734125009919)
(0.000747648728353 7.79540030954e-05 0.000169559146964 0.000747648728276 -1.16692632649e-16 0.000747648728431)
(0.00077221989506 0.000126892166576 0.000171187531735 0.000772219894986 -7.94766910927e-17 0.000772219895134)
(0.000805284611607 0.00017320337305 0.000173200628441 0.000805284611537 -3.02775930637e-18 0.000805284611677)
(0.00084449347456 0.000216909776343 0.000175293953704 0.000844493474495 1.04275336275e-16 0.000844493474625)
(0.000887854137947 0.000258088868081 0.000177189117359 0.000887854137888 2.01603257613e-16 0.000887854138005)
(0.000933776911167 0.000296870127364 0.000178647021299 0.000933776911116 2.71741825235e-16 0.000933776911218)
(0.00098105436838 0.000333423749646 0.000179472763871 0.000981054368337 3.0453427468e-16 0.000981054368423)
(0.00102880986925 0.000367946824566 0.000179516666221 0.00102880986922 2.73623609261e-16 0.00102880986929)
(0.0010764369873 0.000400650023866 0.000178673636766 0.00107643698727 1.62920670229e-16 0.00107643698733)
(0.00112354106926 0.000431745960953 0.000176881634525 0.00112354106924 -1.80796904826e-17 0.00112354106928)
(0.00116988746317 0.00046143947084 0.000174119305153 0.00116988746315 -2.65839380253e-16 0.00116988746318)
(0.00121535750245 0.000489919759672 0.000170402668158 0.00121535750245 -5.67715456824e-16 0.00121535750246)
(0.00125991184237 0.000517354317886 0.000165780785131 0.00125991184237 -9.07282512447e-16 0.00125991184236)
(0.00130356026346 0.000543884497209 0.000160330478713 0.00130356026347 -1.27389630935e-15 0.00130356026345)
(0.00134633702404 0.000569622646728 0.000154150320661 0.00134633702405 -1.65589991788e-15 0.00134633702403)
(0.00138828096379 0.000594650677315 0.000147354214983 0.00138828096381 -2.03944976797e-15 0.00138828096377)
(0.00142941969799 0.000619019881174 0.000140064957601 0.00142941969802 -2.39671003236e-15 0.00142941969797)
(0.00146975733866 0.000642751780291 0.000132408151389 0.00146975733869 -2.72394433166e-15 0.00146975733863)
(0.00150926522376 0.00066583973364 0.000124506804243 0.00150926522379 -3.01157190786e-15 0.00150926522373)
(0.00154787513252 0.000688250998129 0.000116476852251 0.00154787513255 -3.25493150269e-15 0.00154787513249)
(0.0015854744291 0.000709928920671 0.00010842374932 0.00158547442913 -3.44043826715e-15 0.00158547442907)
(0.00162190252091 0.00073079493383 0.000100440158882 0.00162190252094 -3.52870301028e-15 0.00162190252087)
(0.00165694795293 0.000750750035293 9.26046962144e-05 0.00165694795297 -3.55710380417e-15 0.0016569479529)
(0.00169034539008 0.000769675442224 8.49815983095e-05 0.00169034539012 -3.51696686768e-15 0.00169034539004)
(0.00172177166079 0.000787432108661 7.76211570997e-05 0.00172177166082 -3.38015849547e-15 0.00172177166075)
(0.00175083993785 0.000803858775437 7.05607308917e-05 0.00175083993789 -3.16823811469e-15 0.00175083993782)
(0.00177709099434 0.000818768164865 6.38261525192e-05 0.00177709099437 -2.88813517591e-15 0.00177709099431)
(0.00179998026704 0.00083194081896 5.74333686408e-05 0.00179998026707 -2.53233630867e-15 0.00179998026701)
(0.00181885914972 0.000843115889477 5.1390172902e-05 0.00181885914975 -2.10890451662e-15 0.00181885914969)
(0.00183294847748 0.000851977880062 4.56979262082e-05 0.00183294847751 -1.62890177783e-15 0.00183294847745)
(0.00184130150286 0.000858137867384 4.0353189908e-05 0.00184130150289 -1.10143796362e-15 0.00184130150283)
(0.0018427527616 0.000861107007938 3.53492273404e-05 0.00184275276162 -5.38961332681e-16 0.00184275276158)
(0.00183584809801 0.00086025906517 3.06773561372e-05 0.00183584809803 4.62778732112e-17 0.00183584809798)
(0.00181874996891 0.000854777144985 2.63281579047e-05 0.00181874996893 6.38802177657e-16 0.00181874996889)
(0.00178911171735 0.000843577744248 2.22925754419e-05 0.00178911171736 1.22094870073e-15 0.00178911171733)
(0.00174391701633 0.000825202951838 1.85629557656e-05 0.00174391701635 1.77044436048e-15 0.00174391701632)
(0.00167929215701 0.000797671116475 1.51341386605e-05 0.00167929215703 2.26141972638e-15 0.001679292157)
(0.00159033487259 0.000758284869376 1.20047621965e-05 0.0015903348726 2.66012903107e-15 0.00159033487258)
(0.00147110182171 0.000703438019383 9.17908731197e-06 0.00147110182172 2.92442910754e-15 0.00147110182171)
(0.00131513926941 0.000628616739204 6.6698512498e-06 0.00131513926941 3.00285046125e-15 0.0013151392694)
(0.00111744905449 0.000529254027329 4.5027773677e-06 0.0011174490545 2.83708590095e-15 0.00111744905449)
(0.00087945068014 0.000404104680439 2.72216269355e-06 0.000879450680142 2.385495997e-15 0.000879450680138)
(0.000617692151635 0.000263069876723 1.38964462099e-06 0.000617692151636 1.68364058096e-15 0.000617692151634)
(0.000369797864782 0.000133970927298 5.50138238525e-07 0.000369797864782 9.17586058284e-16 0.000369797864782)
(0.000180157809977 4.8412606942e-05 1.52144275863e-07 0.000180157809977 3.51189966951e-16 0.000180157809977)
(6.77815502753e-05 1.11918276892e-05 2.6007005436e-08 6.77815502754e-05 8.52845652366e-17 6.77815502753e-05)
(1.78079676454e-05 1.41454355006e-06 2.25778113258e-09 1.78079676454e-05 1.12496747679e-17 1.78079676454e-05)
(3.22646600442e-06 8.60099715035e-08 7.97107072253e-11 3.22646600442e-06 7.10154490142e-19 3.22646600442e-06)
(6.29067174049e-06 2.89055666803e-08 8.71234692768e-12 6.29067174049e-06 2.46782499066e-19 6.29067174049e-06)
(0.000773640085807 2.67175310489e-05 0.000211188625829 0.000773640085734 -1.10068234168e-16 0.00077364008588)
(0.000787100615593 7.88619601299e-05 0.000212352696198 0.000787100615522 -1.96658709488e-16 0.000787100615665)
(0.00081156440152 0.000128395377472 0.000214378540521 0.000811564401451 -1.76803281534e-16 0.000811564401589)
(0.000844491802193 0.000175295752552 0.000216906480811 0.000844491802129 -1.19618698487e-16 0.000844491802258)
(0.000883532639647 0.000219575023192 0.00021957281164 0.000883532639587 -2.91993752588e-19 0.000883532639706)
(0.00092667618202 0.000261290717742 0.000222041301737 0.000926676181966 1.04446546944e-16 0.000926676182074)
(0.00097230000076 0.000300546937625 0.000224018671032 0.000972300000713 1.9014158297e-16 0.000972300000807)
(0.00101915541828 0.000337487600931 0.00022526087958 0.00101915541824 2.29258933431e-16 0.00101915541832)
(0.00106632214785 0.000372286313342 0.000225575091479 0.00106632214781 1.90214233156e-16 0.00106632214788)
(0.00111315303465 0.000405135646968 0.000224819803672 0.00111315303462 7.92429926637e-17 0.00111315303467)
(0.00115921977299 0.000436237045113 0.00022290400281 0.00115921977298 -1.18092188673e-16 0.00115921977301)
(0.00120426410475 0.000465791748796 0.00021978540815 0.00120426410474 -3.85998062042e-16 0.00120426410476)
(0.00124815565199 0.000493992844009 0.00021546760286 0.00124815565198 -7.00794810444e-16 0.00124815565199)
(0.00129085606619 0.000521018468676 0.000209995889402 0.0012908560662 -1.07035906169e-15 0.00129085606619)
(0.00133238870324 0.000547026224924 0.000203451862425 0.00133238870325 -1.51094382419e-15 0.00133238870323)
(0.00137281301664 0.000572148845967 0.00019594687062 0.00137281301665 -1.95269518689e-15 0.00137281301663)
(0.00141220300784 0.000596491143352 0.00018761469529 0.00141220300786 -2.37858032565e-15 0.00141220300782)
(0.00145062923726 0.00062012821179 0.000178603869597 0.00145062923728 -2.79658688504e-15 0.00145062923724)
(0.00148814402107 0.00064310480037 0.000169070103067 0.00148814402109 -3.19123193863e-15 0.00148814402104)
(0.00152476949549 0.000665435683498 0.000159169250695 0.00152476949552 -3.52581513921e-15 0.00152476949547)
(0.00156048822505 0.000687106796131 0.000149051194291 0.00156048822508 -3.79926918879e-15 0.00156048822502)
(0.00159523597478 0.000708076837229 0.00013885489512 0.00159523597481 -4.0094473246e-15 0.00159523597475)
(0.00162889617599 0.000728279005757 0.0001287047555 0.00162889617603 -4.1317314171e-15 0.00162889617596)
(0.00166129550404 0.000747622510642 0.000118708306355 0.00166129550407 -4.17670973857e-15 0.00166129550401)
(0.00169219986634 0.000765993484196 0.000108955135011 0.00169219986637 -4.12099932859e-15 0.00169219986631)
(0.00172130997174 0.000783254920331 9.95168899783e-05 0.00172130997177 -3.97822598838e-15 0.00172130997171)
(0.00174825551281 0.00079924523734 9.04481536581e-05 0.00174825551284 -3.73992295463e-15 0.00174825551278)
(0.00177258682525 0.000813775017556 8.1787956182e-05 0.00177258682528 -3.40492241507e-15 0.00177258682522)
(0.00179376266613 0.000826621375253 7.35617097163e-05 0.00179376266616 -2.98368532605e-15 0.0017937626661)
(0.00181113243919 0.000837519228549 6.57833685354e-05 0.00181113243921 -2.48679577382e-15 0.00181113243916)
(0.00182391074316 0.000846148457277 5.84576542121e-05 0.00182391074319 -1.91878120561e-15 0.00182391074313)
(0.00183114147756 0.000852115469217 5.15822270317e-05 0.00183114147758 -1.28676055746e-15 0.00183114147754)
(0.00183164786601 0.000854926990078 4.51497239429e-05 0.00183164786603 -6.112513314e-16 0.00183164786598)
(0.00182396367022 0.000853952833217 3.91496224081e-05 0.00182396367024 9.37012196097e-17 0.0018239636702)
(0.00180623977578 0.000848372876443 3.35699245984e-05 0.0018062397758 8.08285189952e-16 0.00180623977576)
(0.00177611999971 0.000837101427049 2.83986907219e-05 0.00177611999972 1.51074245393e-15 0.00177611999969)
(0.00173058264659 0.000818679966292 2.36254901658e-05 0.0017305826466 2.17518401907e-15 0.00173058264657)
(0.00166575612189 0.000791128919414 1.92428949689e-05 0.0016657561219 2.76760766428e-15 0.00166575612188)
(0.00157675347146 0.000751758096875 1.52482341903e-05 0.00157675347147 3.24779232307e-15 0.00157675347145)
(0.00145766996206 0.00069697907097 1.16459954939e-05 0.00145766996207 3.56504555781e-15 0.00145766996205)
(0.00130213066355 0.000622318610361 8.45152251842e-06 0.00130213066355 3.65532924685e-15 0.00130213066354)
(0.00110527863875 0.000523297364205 5.69678850396e-06 0.00110527863875 3.44809453517e-15 0.00110527863874)
(0.00086874026076 0.000398832541992 3.43741904352e-06 0.000868740260762 2.89323374244e-15 0.000868740260758)
(0.000609230844356 0.00025900706342 1.75067081035e-06 0.000609230844357 2.03667179499e-15 0.000609230844355)
(0.000364183209923 0.000131539202713 6.91291636906e-07 0.000364183209923 1.10689520215e-15 0.000364183209922)
(0.000177230565135 4.74197455041e-05 1.90760390062e-07 0.000177230565135 4.22627789768e-16 0.000177230565135)
(6.66458727128e-05 1.09459330758e-05 3.25636526774e-08 6.66458727128e-05 1.02480330681e-16 6.66458727128e-05)
(1.7508068253e-05 1.38271909691e-06 2.82558527617e-09 1.7508068253e-05 1.35110209604e-17 1.7508068253e-05)
(3.17656353689e-06 8.41846472389e-08 9.98849541132e-11 3.17656353689e-06 8.54055952497e-19 3.17656353689e-06)
(6.21724618361e-06 2.84020330975e-08 1.0959314202e-11 6.21724618361e-06 2.97952368027e-19 6.21724618361e-06)
(0.00081744230064 2.69810393348e-05 0.000251363138102 0.000817442300574 -1.12137019263e-16 0.000817442300706)
(0.000830809348387 7.96543406527e-05 0.000252719174836 0.000830809348322 -2.49748366846e-16 0.000830809348451)
(0.000855116276853 0.000129728677109 0.000255093199409 0.000855116276791 -2.65615884057e-16 0.000855116276915)
(0.00088785101212 0.00017718999895 0.000258085176825 0.000887851012062 -2.11053765786e-16 0.000887851012178)
(0.00092667469828 0.000222042456154 0.000261288188405 0.000926674698226 -1.10456857174e-16 0.000926674698334)
(0.00096956698892 0.000264322790239 0.000264321400653 0.000969566988872 -2.3744311779e-18 0.000969566988968)
(0.00101487728344 0.000304106209531 0.000266846861916 0.0010148772834 8.4993943074e-17 0.00101487728348)
(0.00106131601157 0.000341504824799 0.000268576965954 0.00106131601153 1.28319199286e-16 0.0010613160116)
(0.00110791589024 0.00037666192245 0.000269277511505 0.00110791589021 1.02756175482e-16 0.00110791589027)
(0.00115398270518 0.000409744510941 0.000268768926873 0.00115398270516 -1.80946697971e-18 0.0011539827052)
(0.00119904599767 0.000440935383631 0.000266926562697 0.00119904599766 -1.93293742755e-16 0.00119904599769)
(0.00124281406545 0.000470425229087 0.000263680083077 0.00124281406544 -4.61253908435e-16 0.00124281406546)
(0.00128513446988 0.000498405029065 0.000259011676844 0.00128513446988 -7.97502895278e-16 0.00128513446988)
(0.00132595979897 0.000525058914253 0.000252952816159 0.00132595979898 -1.20031120678e-15 0.00132595979897)
(0.00136531796502 0.000550557653257 0.000245579440146 0.00136531796503 -1.63551272696e-15 0.00136531796501)
(0.00140328630543 0.000575052963031 0.000237005639979 0.00140328630545 -2.09710302429e-15 0.00140328630542)
(0.00143996892063 0.000598672815625 0.000227376109798 0.00143996892065 -2.56185527929e-15 0.00143996892062)
(0.00147547687672 0.000621517875173 0.000216857775923 0.00147547687674 -3.01676951022e-15 0.0014754768767)
(0.0015099110538 0.000643659127265 0.000205631105928 0.00150991105382 -3.44227645965e-15 0.00150991105378)
(0.00154334750648 0.000665136671582 0.000193881625427 0.00154334750651 -3.81999108472e-15 0.00154334750645)