/*--------------------------------*- C++ -*----------------------------------*\
| =========                 |                                                 |
| \\      /  F ield         | OpenFOAM: The Open Source CFD Toolbox           |
|  \\    /   O peration     | Version:  3.0.1                                 |
|   \\  /    A nd           | Web:      www.OpenFOAM.org                      |
|    \\/     M anipulation  |                                                 |
\*---------------------------------------------------------------------------*/
FoamFile
{
    version     2.0;
    format      ascii;
    class       volVectorField;
    location    "50000";
    object      U;
}
// * * * * * * * * * * * * * * * * * * * * * * * * * * * * * * * * * * * * * //

dimensions      [0 1 -1 0 0 0 0];

internalField   nonuniform List<vector> 
2500
(
(0.644080609447 3.65599351574e-13 -3.66058557832e-13)
(0.643258250064 1.07132426049e-12 -3.57144201373e-13)
(0.641736831957 1.72122651007e-12 -3.41049712259e-13)
(0.639630834348 2.30737986581e-12 -3.19548084069e-13)
(0.637040043299 2.82581167546e-12 -2.93401951126e-13)
(0.634047078445 3.2750720591e-12 -2.64185699727e-13)
(0.630717688705 3.65643687124e-12 -2.32286663377e-13)
(0.627102576977 3.97241028255e-12 -1.98972330533e-13)
(0.623239759452 4.22600271387e-12 -1.6424847796e-13)
(0.619156893773 4.42174948052e-12 -1.29119749379e-13)
(0.614873331782 4.56356568719e-12 -9.39587709389e-14)
(0.610401830852 4.65633219736e-12 -5.89253034154e-14)
(0.605749937637 4.70421743148e-12 -2.4532962646e-14)
(0.600921085076 4.71237085221e-12 9.24831070155e-15)
(0.595915446886 4.68520294383e-12 4.20831509652e-14)
(0.590730588412 4.62661013749e-12 7.39288576843e-14)
(0.585361945376 4.54078687694e-12 1.04583078882e-13)
(0.579803155247 4.43135003112e-12 1.34021712169e-13)
(0.574046260312 4.30179080549e-12 1.62137203152e-13)
(0.568081796975 4.15527262106e-12 1.88916639557e-13)
(0.561898781815 3.99480958023e-12 2.14283762733e-13)
(0.555484601305 3.82295001956e-12 2.38250244072e-13)
(0.548824808198 3.64216720842e-12 2.60781489194e-13)
(0.541902823315 3.45461154489e-12 2.81858013167e-13)
(0.534699536301 3.2622595833e-12 3.01449618469e-13)
(0.527192792599 3.06692315363e-12 3.19560806831e-13)
(0.519356745877 2.87011331492e-12 3.36168323603e-13)
(0.511161044768 2.67321484679e-12 3.51259351529e-13)
(0.502569809 2.47754010011e-12 3.64819580048e-13)
(0.493540331362 2.28419524759e-12 3.76821977837e-13)
(0.484021416266 2.09417362513e-12 3.87212215384e-13)
(0.473951229839 1.90838252145e-12 3.95932482274e-13)
(0.463254486048 1.7275510583e-12 4.02907703714e-13)
(0.451838722596 1.55239747282e-12 4.08054937916e-13)
(0.439589322567 1.3835465462e-12 4.11243355062e-13)
(0.42636280893 1.22155768189e-12 4.12330498435e-13)
(0.411977789421 1.06703947307e-12 4.11107997042e-13)
(0.396202820697 9.20487238915e-13 4.07296420435e-13)
(0.378740618183 7.82437343717e-13 4.00552641849e-13)
(0.359209172872 6.53442741498e-13 3.90379840623e-13)
(0.337124523498 5.34108411934e-13 3.76152315664e-13)
(0.311902596546 4.2516085085e-13 3.57055215367e-13)
(0.282929222689 3.27375558416e-13 3.3215602833e-13)
(0.249798090074 2.41643217361e-13 3.00636165241e-13)
(0.21278048331 1.6881759372e-13 2.62386463008e-13)
(0.173187812569 1.09518962116e-13 2.18599360505e-13)
(0.13289457947 6.37864786298e-14 1.71440680293e-13)
(0.0933090127734 3.09182025162e-14 1.22829764018e-13)
(0.0550215844988 1.01652262634e-14 7.3825075522e-14)
(0.0181519339128 5.42645997753e-16 2.48911552665e-14)
(0.643258275302 3.56863154181e-13 -1.07227596814e-12)
(0.642434687214 1.04571864937e-12 -1.04614621827e-12)
(0.640910829844 1.67967584271e-12 -9.99275963478e-13)
(0.638801205527 2.25154980294e-12 -9.35969494654e-13)
(0.636205749344 2.75726439872e-12 -8.59413182749e-13)
(0.633207381009 3.19553829384e-12 -7.73457445175e-13)
(0.629872263321 3.56743671189e-12 -6.80001512667e-13)
(0.62625156995 3.87569479846e-12 -5.82119988635e-13)
(0.622383792682 4.12311580215e-12 -4.80864964094e-13)
(0.618297030246 4.31342288121e-12 -3.78231257442e-13)
(0.614011014294 4.45141872779e-12 -2.75201292901e-13)
(0.609538804169 4.54142984362e-12 -1.72852354021e-13)
(0.604888162011 4.58773607273e-12 -7.19703827977e-14)
(0.600062647384 4.59546644566e-12 2.69891513917e-14)
(0.595062474528 4.56872608876e-12 1.23202402293e-13)
(0.589885170114 4.51138406801e-12 2.16409173875e-13)
(0.584526062162 4.42749394094e-12 3.06218072602e-13)
(0.57897862385 4.32065373613e-12 3.92385478678e-13)
(0.573234690328 4.19422515324e-12 4.74758407802e-13)
(0.567284562051 4.05127887546e-12 5.53148841374e-13)
(0.561117004317 3.89476448013e-12 6.27484336767e-13)
(0.554719149182 3.72721605433e-12 6.97587026868e-13)
(0.548076302267 3.55093194209e-12 7.63497053422e-13)
(0.541171652891 3.36799295953e-12 8.25194412198e-13)
(0.533985881045 3.18039079697e-12 8.82595715085e-13)
(0.526496648517 2.98991147619e-12 9.35652761733e-13)
(0.518677953667 2.79799138781e-12 9.84376613027e-13)
(0.510499318966 2.60604062742e-12 1.0286207857e-12)
(0.501924766757 2.41533620822e-12 1.06836503896e-12)
(0.49291152002 2.22686847584e-12 1.10351454872e-12)
(0.483408339251 2.04157036368e-12 1.13394380894e-12)
(0.473353370754 1.86035867843e-12 1.15948953136e-12)
(0.462671331196 1.68399550082e-12 1.17992599275e-12)
(0.451269782642 1.51315079988e-12 1.19498605168e-12)
(0.439034154668 1.34846105752e-12 1.20430945976e-12)
(0.425821041834 1.19051124209e-12 1.20744220033e-12)
(0.411449156107 1.03979187017e-12 1.20378311479e-12)
(0.395687207489 8.96895704316e-13 1.19253022321e-12)
(0.378238148338 7.62304188847e-13 1.17264067298e-12)
(0.358720362165 6.36511190129e-13 1.14269521143e-12)
(0.336650585893 5.20176411714e-13 1.1008392102e-12)
(0.311446051091 4.13976665511e-13 1.04471002175e-12)
(0.282495016082 3.18676552791e-13 9.71578874073e-13)
(0.24939516702 2.35141513093e-13 8.79101626447e-13)
(0.212422260075 1.64225061012e-13 7.66985936132e-13)
(0.172888465269 1.06512178475e-13 6.38765750241e-13)
(0.132662757705 6.20192438527e-14 5.00788101029e-13)
(0.0931463522733 3.00479262591e-14 3.58664709433e-13)
(0.0549260482344 9.87105034484e-15 2.15483581408e-13)
(0.0181205867225 5.22807116625e-16 7.26113290669e-14)
(0.641736896265 3.41102784938e-13 -1.72179802936e-12)
(0.640910869103 9.99210909906e-13 -1.68006613797e-12)
(0.639382200732 1.60467075368e-12 -1.60492037368e-12)
(0.637265461642 2.1509406768e-12 -1.50292321411e-12)
(0.634660870116 2.63372896273e-12 -1.38005828443e-12)
(0.631651893209 3.0521009131e-12 -1.2414931348e-12)
(0.62830544467 3.40677206476e-12 -1.09148895872e-12)
(0.624673555655 3.70030138899e-12 -9.33729357032e-13)
(0.620795591291 3.93576226863e-12 -7.71317228595e-13)
(0.616700469669 4.1168346092e-12 -6.06419547326e-13)
(0.612408639202 4.24778963706e-12 -4.4092444252e-13)
(0.607933742115 4.33296072986e-12 -2.7656024417e-13)
(0.603283971846 4.37673616159e-12 -1.14498825084e-13)
(0.598463160852 4.38345476238e-12 4.42667097792e-14)
(0.593471640024 4.35723030949e-12 1.98639636525e-13)
(0.588306906202 4.30203583254e-12 3.48128293144e-13)
(0.582964127006 4.22156082001e-12 4.92171274584e-13)
(0.577436505236 4.11935040236e-12 6.30392203005e-13)
(0.571715519295 3.99853636623e-12 7.62448623136e-13)
(0.565791051454 3.86204628168e-12 8.88142564376e-13)
(0.559651412036 3.71251661555e-12 1.00731277347e-12)
(0.553283264296 3.55247750188e-12 1.11982321631e-12)
(0.546671451421 3.38450030785e-12 1.22559228168e-12)
(0.539798723415 3.21022275205e-12 1.32454916575e-12)
(0.532645357009 3.03138603103e-12 1.41667251063e-12)
(0.525188655985 2.84995474174e-12 1.50185121445e-12)
(0.517402311625 2.66705687218e-12 1.58003171719e-12)
(0.509255592951 2.48399014617e-12 1.65111674493e-12)
(0.500712322737 2.30224105682e-12 1.71498251927e-12)
(0.491729576772 2.12265184929e-12 1.77144472577e-12)
(0.482256018125 1.94612412165e-12 1.82032283936e-12)
(0.472229742391 1.77344079913e-12 1.86133940106e-12)
(0.461575459505 1.60530386876e-12 1.89416541677e-12)
(0.450200767203 1.44241341511e-12 1.91835958529e-12)
(0.437991174035 1.28536196941e-12 1.93335089414e-12)
(0.424803402308 1.13472156813e-12 1.93839488199e-12)
(0.410456354614 9.91010845543e-13 1.93251560033e-12)
(0.394719025341 8.54765248279e-13 1.91445485076e-12)
(0.377294809799 7.26455791419e-13 1.8824702366e-12)
(0.357802828474 6.06527103858e-13 1.83432067618e-12)
(0.335761131656 4.95618562414e-13 1.76701371669e-12)
(0.310589406712 3.94376143159e-13 1.67676326368e-12)
(0.281680475926 3.03580549333e-13 1.55920195145e-12)
(0.248639523878 2.2403270578e-13 1.41059079668e-12)
(0.211750651098 1.56464427779e-13 1.23052585448e-12)
(0.17232737563 1.01498194592e-13 1.024717344e-12)
(0.132228290203 5.91192372917e-14 8.03336166077e-13)
(0.0928415139148 2.86589032204e-14 5.75342762752e-13)
(0.0547470066374 9.42316715707e-15 3.45662977097e-13)
(0.0180618398795 5.0386205239e-16 1.16478103361e-13)
(0.639630938642 3.19465708421e-13 -2.3076102351e-12)
(0.638801285358 9.35877955187e-13 -2.2517631353e-12)
(0.637265502815 1.50285308801e-12 -2.15114552452e-12)
(0.635138283062 2.01409447561e-12 -2.01421577574e-12)
(0.632520231509 2.46581427077e-12 -1.8493212017e-12)
(0.629495542057 2.85695636834e-12 -1.66324600646e-12)
(0.626132126985 3.18828264284e-12 -1.46193206274e-12)
(0.622483168387 3.46201334384e-12 -1.25015881193e-12)
(0.618589219515 3.68112403393e-12 -1.03207773981e-12)
(0.614480332627 3.84931167097e-12 -8.10733941623e-13)
(0.610177970796 3.97053493585e-12 -5.88831225834e-13)
(0.605696627174 4.04888096816e-12 -3.68436405167e-13)
(0.601045154923 4.08851858618e-12 -1.5132373517e-13)
(0.596227841069 4.09354048258e-12 6.11517293371e-14)
(0.591245263416 4.06788411298e-12 2.6780602703e-13)
(0.586094965503 4.01535647524e-12 4.67829658886e-13)
(0.580771977495 3.93938479333e-12 6.60510686052e-13)
(0.575269203711 3.84317414025e-12 8.4539864687e-13)
(0.569577691433 3.72972671019e-12 1.02195903259e-12)
(0.563686790803 3.60184342113e-12 1.19004843978e-12)
(0.557584211775 3.46204834615e-12 1.34935322717e-12)
(0.551255980898 3.31258713144e-12 1.49990215629e-12)
(0.544686297656 3.15553365266e-12 1.64145797261e-12)
(0.537857286824 2.99278715419e-12 1.77380323548e-12)
(0.530748639186 2.82596517598e-12 1.89710536844e-12)
(0.523337127635 2.65661261425e-12 2.01113075267e-12)
(0.515595978511 2.48607751125e-12 2.11575657205e-12)
(0.507494068239 2.315530769e-12 2.21090182658e-12)
(0.498994901973 2.14603090993e-12 2.29643197708e-12)
(0.490055312532 1.9785213312e-12 2.3720659031e-12)
(0.480623792328 1.81385363246e-12 2.43756591529e-12)
(0.470638335237 1.65279883584e-12 2.4925431793e-12)
(0.460023615089 1.49607272271e-12 2.53656684492e-12)
(0.448687257189 1.34422455903e-12 2.56902726398e-12)
(0.436514862638 1.19781810529e-12 2.58917135217e-12)
(0.42336331894 1.05736836832e-12 2.59598392359e-12)
(0.409051786364 9.23441898164e-13 2.58816104946e-12)
(0.39334965306 7.96407494034e-13 2.56396811006e-12)
(0.375960936035 6.76692415914e-13 2.5211071755e-12)
(0.356505797613 5.64887796717e-13 2.45653938557e-12)
(0.334504150697 4.61499252564e-13 2.36626631688e-12)
(0.309379167564 3.67151031491e-13 2.24520314951e-12)
(0.280530137822 2.82534034362e-13 2.08753710305e-12)
(0.247572831959 2.08432609481e-13 1.88828528555e-12)
(0.210803036581 1.45562475231e-13 1.64702264896e-12)
(0.171536002075 9.44306202032e-14 1.37145294053e-12)
(0.13161562638 5.49964746357e-14 1.07516302034e-12)
(0.0924116707531 2.66515282844e-14 7.70062445169e-13)
(0.0544945473488 8.76009474753e-15 4.62687934383e-13)
(0.0179790032877 4.65732778447e-16 1.55931676133e-13)
(0.637040178408 2.93470662923e-13 -2.82617967179e-12)
(0.636205861083 8.59379168381e-13 -2.757508952e-12)
(0.634660944649 1.37990759218e-12 -2.63410718456e-12)
(0.632520265873 1.84920143404e-12 -2.46596460571e-12)
(0.629884860984 2.26331588646e-12 -2.26347391687e-12)
(0.626839743226 2.62160081939e-12 -2.03509319065e-12)
(0.623453970524 2.92452814203e-12 -1.78792347841e-12)
(0.619782069823 3.17422011755e-12 -1.52815258502e-12)
(0.61586601002 3.37356732211e-12 -1.26054150862e-12)
(0.611737224814 3.52597456019e-12 -9.89112039704e-13)
(0.607418446393 3.63514542802e-12 -7.17145781632e-13)
(0.602925269368 3.70498084214e-12 -4.47160368953e-13)
(0.598267443375 3.73935832531e-12 -1.81411743974e-13)
(0.593449924089 3.74207713377e-12 7.83758167465e-14)
(0.588473719694 3.71682276552e-12 3.30937371727e-13)
(0.583336566541 3.66713199566e-12 5.75488867491e-13)
(0.578033460898 3.59624206705e-12 8.10821663493e-13)
(0.572557066394 3.50700308715e-12 1.03655685353e-12)
(0.566898010333 3.40225657083e-12 1.25209948656e-12)
(0.5610450768 3.28453942139e-12 1.45733415131e-12)
(0.55498530036 3.15621374647e-12 1.65171215334e-12)
(0.548703960765 3.01933225691e-12 1.83535077749e-12)
(0.5421844762 2.87541395626e-12 2.00793058536e-12)
(0.535408189527 2.72667418935e-12 2.16947287992e-12)
(0.52835403841 2.57445623072e-12 2.31986307073e-12)
(0.520998095376 2.41978503978e-12 2.45894594586e-12)
(0.513312957274 2.26405994651e-12 2.58672093002e-12)
(0.505266954319 2.10849686005e-12 2.7029087649e-12)
(0.496823135965 1.95402430077e-12 2.80737394249e-12)
(0.487937972746 1.80136045022e-12 2.89979072254e-12)
(0.478559687858 1.65135555572e-12 2.97991415586e-12)
(0.46862609668 1.50464221883e-12 3.04720072822e-12)
(0.458061782344 1.36185249611e-12 3.10111462058e-12)
(0.446774365527 1.22353282542e-12 3.14090083285e-12)
(0.43464953073 1.09018160901e-12 3.16561625127e-12)
(0.421544346603 9.62246675978e-13 3.17401922149e-12)
(0.407278277234 8.40206134145e-13 3.1644949978e-12)
(0.391621192308 7.2445829226e-13 3.13489657775e-12)
(0.374277884331 6.15454273148e-13 3.08243132938e-12)
(0.35486982878 5.13630503755e-13 3.00334218031e-12)
(0.332919297108 4.1949702836e-13 2.89273444516e-12)
(0.307853878677 3.33637698182e-13 2.74439001071e-12)
(0.279081045444 2.56641236755e-13 2.55122522154e-12)
(0.246229894718 1.89241113285e-13 2.30725682836e-12)
(0.209610768034 1.32142995981e-13 2.0120971372e-12)
(0.170540814091 8.57148114141e-14 1.67526045334e-12)
(0.130845370473 4.99256760265e-14 1.31330533898e-12)
(0.0918713014415 2.42049738042e-14 9.4065638413e-13)
(0.0541771757262 7.96284324292e-15 5.65215243719e-13)
(0.0178748676627 4.25612506619e-16 1.90494334115e-13)
(0.634047229422 2.6421708194e-13 -3.27528415851e-12)
(0.633207510228 7.73357009664e-13 -3.19597641253e-12)
(0.631651987577 1.24150461172e-12 -3.0524171542e-12)
(0.629495598395 1.66331533461e-12 -2.85719183265e-12)
(0.626839766435 2.03494989561e-12 -2.62178646635e-12)
(0.623770315219 2.35607417968e-12 -2.3562300535e-12)
(0.620357488908 2.6269472586e-12 -2.06891133022e-12)
(0.616657251499 2.8495040317e-12 -1.76692183347e-12)
(0.612713125672 3.02647098846e-12 -1.45600389646e-12)
(0.608558101971 3.1608689643e-12 -1.14085520596e-12)
(0.604216385001 3.25630964415e-12 -8.25273473984e-13)
(0.599704892799 3.31621470502e-12 -5.12285070771e-13)
(0.595034502923 3.3440273656e-12 -2.04404594744e-13)
(0.590211071342 3.34356880312e-12 9.64615980253e-14)
(0.585236258965 3.31868774326e-12 3.88825637625e-13)
(0.580108198516 3.27190863571e-12 6.71372856625e-13)
(0.574822028093 3.20612695277e-12 9.43348109278e-13)
(0.569370310575 3.12438146177e-12 1.20392432981e-12)
(0.563743351233 3.02920614403e-12 1.45278461808e-12)
(0.557929420235 2.92253767761e-12 1.6894306734e-12)
(0.551914882014 2.80664784824e-12 1.91376250542e-12)
(0.545684229759 2.68349470667e-12 2.12544116187e-12)
(0.539220020054 2.55443865112e-12 2.32451410001e-12)
(0.532502699735 2.42136840274e-12 2.51077202648e-12)
(0.525510313618 2.28514072706e-12 2.68414405962e-12)
(0.518218077449 2.14731421878e-12 2.84454969241e-12)
(0.510597794379 2.00874670942e-12 2.99189437765e-12)
(0.502617084615 1.87024742352e-12 3.12597969327e-12)
(0.494238385603 1.73277381605e-12 3.24658263225e-12)
(0.485417662443 1.59717356748e-12 3.35332145536e-12)
(0.476102743373 1.46396605355e-12 3.44580623998e-12)
(0.466231159839 1.33357212284e-12 3.52354772958e-12)
(0.455727321005 1.20680625201e-12 3.5858581024e-12)
(0.444498783067 1.08400118983e-12 3.63187508283e-12)
(0.432431278736 9.65644560624e-13 3.66046607322e-12)
(0.419382049476 8.52117677774e-13 3.6702005464e-12)
(0.405170886524 7.43828394631e-13 3.65917135998e-12)
(0.389568206543 6.41163292215e-13 3.62489818204e-12)
(0.372279707504 5.44457760634e-13 3.56410013915e-12)
(0.352928419831 4.54150943914e-13 3.47243993007e-12)
(0.331039425407 3.70728077358e-13 3.34422091964e-12)
(0.30604558466 2.94670410503e-13 3.17226114397e-12)
(0.277364113105 2.26547350261e-13 2.94839782099e-12)
(0.244639881774 1.67020111583e-13 2.66585053287e-12)
(0.208200233062 1.16599819598e-13 2.32433953019e-12)
(0.169364158462 7.56176704581e-14 1.9350169891e-12)
(0.129934942512 4.40585618921e-14 1.51693127454e-12)
(0.0912326518712 2.13680736965e-14 1.08656808276e-12)
(0.0538020857938 7.02896607891e-15 6.52943599533e-13)
(0.0177517934343 3.74895307377e-16 2.20084644316e-13)
(0.630717838719 2.32185947194e-13 -3.65665039999e-12)
(0.629872393642 6.79892968893e-13 -3.56771348279e-12)
(0.628305543305 1.09151325665e-12 -3.40692292049e-12)
(0.626132190794 1.46193435178e-12 -3.18846590674e-12)
(0.623454003651 1.787837092e-12 -2.92470802762e-12)
(0.620357500102 2.06878401503e-12 -2.62711086699e-12)
(0.616914045186 2.30499218116e-12 -2.30513840161e-12)
(0.613181032808 2.49815360383e-12 -1.96678694437e-12)
(0.609203589328 2.65072998516e-12 -1.61858314878e-12)
(0.605016363417 2.76555636291e-12 -1.26587253151e-12)
(0.600645177515 2.84582681804e-12 -9.1288219535e-13)
(0.596108454909 2.89475506964e-12 -5.63208778043e-13)
(0.59141841131 2.91562935991e-12 -2.19444134346e-13)
(0.586582033009 2.91183165224e-12 1.16235834666e-13)
(0.581601874073 2.88625294458e-12 4.42137708977e-13)
(0.576476704149 2.8419693265e-12 7.56623892659e-13)
(0.571202032997 2.78157822922e-12 1.05918904138e-12)
(0.56577053094 2.70749600443e-12 1.34881775589e-12)
(0.56017235762 2.62200230674e-12 1.62520031836e-12)
(0.554395405294 2.52708488818e-12 1.88777085063e-12)
(0.548425457711 2.4245360039e-12 2.13667912064e-12)
(0.542246261176 2.316041588e-12 2.37136082561e-12)
(0.535839500712 2.20275564247e-12 2.59202861194e-12)
(0.52918467084 2.08618438066e-12 2.79836520073e-12)
(0.522258827048 1.96754365127e-12 2.9905361884e-12)
(0.515036199824 1.84760311311e-12 3.16834385404e-12)
(0.507487647556 1.72728413474e-12 3.33161003697e-12)
(0.499579916552 1.60742554753e-12 3.48024240624e-12)
(0.49127466481 1.4885461341e-12 3.61387791767e-12)
(0.482527189266 1.37114338857e-12 3.73231689672e-12)
(0.473284771997 1.25613562954e-12 3.83491651466e-12)
(0.463484526159 1.14386049025e-12 3.92120136839e-12)
(0.453050573339 1.03469468898e-12 3.99036643308e-12)
(0.441890315202 9.2900988286e-13 4.04143935432e-12)
(0.429889468527 8.27214377503e-13 4.07314999464e-12)
(0.416905412161 7.29615529943e-13 4.08386403882e-12)
(0.402758262625 6.36515052998e-13 4.07145833738e-12)
(0.3872190252 5.48281145696e-13 4.03313618215e-12)
(0.369994409398 4.65277993699e-13 3.96523873763e-12)
(0.35070921523 3.87825025573e-13 3.86288593203e-12)
(0.328891749417 3.16311262455e-13 3.71973733132e-12)
(0.303980933465 2.51191130472e-13 3.52778886839e-12)
(0.275405160702 1.9295898823e-13 3.27802715912e-12)
(0.242827270652 1.42126845811e-13 2.96304698194e-12)
(0.206593672147 9.91708253557e-14 2.58279919838e-12)
(0.16802492659 6.43323691187e-14 2.14985533314e-12)
(0.128899088656 3.74840746075e-14 1.68530125494e-12)
(0.0905060918447 1.81866963774e-14 1.20723048888e-12)
(0.0533753695969 5.9883051157e-15 7.2551827086e-13)
(0.0176117794362 3.22546024997e-16 2.44581012797e-13)
(0.627102710032 1.98946715145e-13 -3.97265954765e-12)
(0.626251685727 5.82063642936e-13 -3.87586143225e-12)
(0.624673643561 9.33801400845e-13 -3.70046526342e-12)
(0.62248322555 1.25019003564e-12 -3.46218840185e-12)
(0.619782099794 1.52802454817e-12 -3.17438662673e-12)
(0.616657261947 1.76679475718e-12 -2.84966805903e-12)
(0.613181033239 1.96664800214e-12 -2.49830792487e-12)
(0.609412137255 2.12901536375e-12 -2.12916407304e-12)
(0.605397269791 2.25608268017e-12 -1.74938934977e-12)
(0.601172765421 2.35035419789e-12 -1.36492698563e-12)
(0.596766148118 2.41465858059e-12 -9.80499074595e-13)
(0.592197479419 2.45191260571e-12 -5.99951495663e-13)
(0.587480488608 2.46508339591e-12 -2.26265577851e-13)
(0.582623502807 2.45716912436e-12 1.38157163095e-13)
(0.577630206553 2.43087977009e-12 4.9142476205e-13)
(0.572500261051 2.38890786875e-12 8.32241887336e-13)
(0.567229808895 2.33356553686e-12 1.15954685163e-12)
(0.561811883785 2.26697681361e-12 1.47262776256e-12)
(0.556236738195 2.19121039435e-12 1.77096495838e-12)
(0.550492095653 2.10809293318e-12 2.05430448661e-12)
(0.544563328666 2.018956489e-12 2.32241595636e-12)
(0.538433558268 1.92525061759e-12 2.57525203839e-12)
(0.532083666721 1.82811331169e-12 2.81268906315e-12)
(0.52549221087 1.7289372286e-12 3.03476950352e-12)
(0.518635219648 1.62844820424e-12 3.24142095948e-12)
(0.51148585483 1.52718958571e-12 3.43259731698e-12)
(0.504013908624 1.42613113766e-12 3.60816190164e-12)
(0.496185104006 1.32559646473e-12 3.76795290831e-12)
(0.487960152736 1.22639194476e-12 3.91165637363e-12)
(0.479293509859 1.12881486546e-12 4.03895640387e-12)
(0.470131740096 1.03312724141e-12 4.14935222712e-12)
(0.460411377699 9.39913867316e-13 4.24214246753e-12)
(0.450056113101 8.49454933508e-13 4.31651102266e-12)
(0.438973071933 7.62008192576e-13 4.37137291193e-12)
(0.427047859649 6.77867921353e-13 4.40534659989e-12)
(0.414137927162 5.9730349367e-13 4.41661101697e-12)
(0.400063686501 5.20556035675e-13 4.40286683637e-12)
(0.384596747204 4.47955471357e-13 4.36105475195e-12)
(0.367444911443 3.79676351524e-13 4.28718442048e-12)
(0.348234937207 3.16020380466e-13 4.17594764793e-12)
(0.326498737419 2.57391154069e-13 4.02045427383e-12)
(0.301682031344 2.04093179857e-13 3.81206360075e-12)
(0.273225718344 1.56550566987e-13 3.54108443163e-12)
(0.240812582365 1.15149621297e-13 3.19972378002e-12)
(0.204809820027 8.02580067696e-14 2.78823818375e-12)
(0.166539080879 5.20206404542e-14 2.32040774335e-12)
(0.12775028474 3.03012315349e-14 1.81889587189e-12)
(0.0897003973005 1.4695694359e-14 1.30296738854e-12)
(0.0529021828635 4.83743007774e-15 7.83107841668e-13)
(0.0174565172592 2.58522308461e-16 2.64022440714e-13)
(0.623239861958 1.64213997695e-13 -4.2260910923e-12)
(0.622383880562 4.80819085509e-13 -4.12323993819e-12)
(0.620795655568 7.71327842089e-13 -3.93584869623e-12)
(0.618589257784 1.03206979261e-12 -3.68129458445e-12)
(0.615866025391 1.2604503972e-12 -3.37370440956e-12)
(0.612713124846 1.45588056852e-12 -3.02662843838e-12)
(0.609203580639 1.6184477956e-12 -2.65088427566e-12)
(0.605397261676 1.7492543786e-12 -2.25623792827e-12)
(0.601342320981 1.85016577422e-12 -1.85029501522e-12)
(0.597076736178 1.92332808802e-12 -1.43961331469e-12)
(0.59262975391 1.97125534737e-12 -1.02928986659e-12)
(0.588023153096 1.99649512487e-12 -6.2345539391e-13)
(0.583272307786 2.00165583954e-12 -2.25341831165e-13)
(0.57838706308 1.98933286854e-12 1.62394191305e-13)
(0.573372450368 1.96195808729e-12 5.37792988952e-13)
(0.568229270156 1.92203454246e-12 8.992562247e-13)
(0.562954567603 1.87148400909e-12 1.24609704682e-12)
(0.557542020539 1.81220987819e-12 1.57728762687e-12)
(0.551982253713 1.74604855136e-12 1.8925635428e-12)
(0.546263086946 1.67447156124e-12 2.19153435843e-12)
(0.540369719044 1.59877183433e-12 2.47398988643e-12)
(0.534284843889 1.52010545631e-12 2.74019076132e-12)
(0.527988689953 1.43925388558e-12 2.98988368985e-12)
(0.521458969676 1.35736142405e-12 3.22335080266e-12)
(0.514670720286 1.27511860998e-12 3.44041557379e-12)
(0.507596012644 1.19292631512e-12 3.64107560236e-12)
(0.500203498694 1.11136324513e-12 3.82529125991e-12)
(0.49245776046 1.03083064258e-12 3.99288772405e-12)
(0.484318412829 9.51647281597e-13 4.14363329656e-12)
(0.475738896899 8.74108332953e-13 4.27705057978e-12)
(0.466664878177 7.98541077203e-13 4.3927401668e-12)
(0.457032131112 7.25140468926e-13 4.48993308245e-12)
(0.446763744413 6.54191456901e-13 4.56775954502e-12)
(0.435766415207 5.85818745224e-13 4.62503525772e-12)
(0.423925509685 5.20164958074e-13 4.66028663826e-12)
(0.411098453218 4.57450947545e-13 4.67157390345e-12)
(0.39710589276 3.97878828117e-13 4.65641257203e-12)
(0.381720029014 3.4164762497e-13 4.61154538409e-12)
(0.364649811003 2.88951114275e-13 4.5326795889e-12)
(0.345524116479 2.3991820378e-13 4.41419598101e-12)
(0.323878815447 1.94888363082e-13 4.24877001431e-12)
(0.299167116055 1.54083626808e-13 4.02728236603e-12)
(0.270843661991 1.17853259018e-13 3.73957971194e-12)
(0.238612965053 8.64868961608e-14 3.37765886192e-12)
(0.202864417148 6.01639287219e-14 2.94216308508e-12)
(0.164920076358 3.89634877453e-14 2.44788638746e-12)
(0.126499060285 2.26873245551e-14 1.91862537179e-12)
(0.0888229770621 1.10071577745e-14 1.37439986815e-12)
(0.0523868781026 3.62735755214e-15 8.2607063528e-13)
(0.0172874349168 1.96939102872e-16 2.78526566455e-13)
(0.619156955242 1.29066596777e-13 -4.42178613499e-12)
(0.618297079865 3.78172592757e-13 -4.31346688168e-12)
(0.61670050022 6.06441078096e-13 -4.11683542274e-12)
(0.614480342317 8.10716921516e-13 -3.84945306464e-12)
(0.611737216457 9.8898502534e-13 -3.52606357931e-12)
(0.608558081408 1.14070614282e-12 -3.16100370777e-12)
(0.60501633789 1.26572923034e-12 -2.765688088e-12)
(0.601172742262 1.36480014915e-12 -2.35046908259e-12)
(0.597076721943 1.43950445684e-12 -1.92344768138e-12)
(0.59276778842 1.49151034108e-12 -1.49162131065e-12)
(0.588276870786 1.52305420592e-12 -1.0604591779e-12)
(0.583627488624 1.53629556296e-12 -6.34436805845e-13)
(0.578836742199 1.53335560395e-12 -2.1703815748e-13)
(0.57391612914 1.51649160028e-12 1.88899689759e-13)
(0.568872210068 1.48770578101e-12 5.81352539141e-13)
(0.563707148948 1.44960910097e-12 9.58784027916e-13)
(0.558419152068 1.40367056192e-12 1.32021032007e-12)
(0.553002825279 1.35135113997e-12 1.66479871692e-12)
(0.547449463901 1.29443747797e-12 1.99215951612e-12)
(0.541747284128 1.23386959502e-12 2.3021215946e-12)
(0.535881599201 1.17121355557e-12 2.59459116098e-12)
(0.529834937982 1.10712764161e-12 2.8696694179e-12)
(0.52358709807 1.04230444931e-12 3.12741563638e-12)
(0.517115119982 9.777931003e-13 3.3679953422e-12)
(0.510393163276 9.13543920472e-13 3.59142495467e-12)
(0.503392259454 8.5017021093e-13 3.79785301019e-12)
(0.49607990971 7.8820190564e-13 3.98717041356e-12)
(0.488419487331 7.27613194002e-13 4.15933496587e-12)
(0.480369393704 6.68653251268e-13 4.31400901672e-12)
(0.471881901661 6.11568744074e-13 4.4509141533e-12)
(0.462901598106 5.56374151592e-13 4.56945462472e-12)
(0.45336330615 5.0315034479e-13 4.66896470737e-12)
(0.443189321304 4.52079679731e-13 4.74845945918e-12)
(0.432285731657 4.03169578269e-13 4.80673025188e-12)
(0.420537503937 3.56527239478e-13 4.84219160829e-12)
(0.407801906498 3.12212929947e-13 4.8528523995e-12)
(0.393899727158 2.70356942912e-13 4.83601829783e-12)
(0.378603712881 2.31047919608e-13 4.78834779976e-12)
(0.361623984122 1.94348613145e-13 4.70529393007e-12)
(0.342591672108 1.60427569304e-13 4.58100880293e-12)
(0.321046925311 1.29526681633e-13 4.40786176375e-12)
(0.296451091648 1.01764081951e-13 4.17638746387e-12)
(0.268273719659 7.73417439591e-14 3.87618853038e-12)
(0.236242660512 5.64160469386e-14 3.49922130787e-12)
(0.200770620351 3.90425893826e-14 3.04660296688e-12)
(0.163179200626 2.5181373893e-14 2.53393846836e-12)
(0.125154260318 1.46318981043e-14 1.98574338603e-12)
(0.0878800561758 7.08097086741e-15 1.42239882807e-12)
(0.0518331122172 2.32540397118e-15 8.54917333123e-13)
(0.017105732148 1.22837805918e-16 2.88261377138e-13)
(0.61487334495 9.39160190123e-14 -4.56362562957e-12)
(0.614011018414 2.75172934751e-13 -4.45145364132e-12)
(0.612408628878 4.40855300798e-13 -4.24781018208e-12)
(0.610177944955 5.88751754924e-13 -3.97071590797e-12)
(0.607418407671 7.17040780054e-13 -3.63525184124e-12)
(0.604216338494 8.25104768763e-13 -3.2564267956e-12)
(0.600645129455 9.12754744572e-13 -2.84593961845e-12)
(0.596766104793 9.80369280253e-13 -2.4147934388e-12)
(0.592629720924 1.02916328279e-12 -1.97138571553e-12)
(0.588276852657 1.06036997138e-12 -1.52317273156e-12)
(0.583740012377 1.07579877063e-12 -1.07586022789e-12)
(0.579044427687 1.07717099554e-12 -6.34318843097e-13)
(0.574208954169 1.06622595627e-12 -2.02209976948e-13)
(0.56924682847 1.04488408362e-12 2.17400721165e-13)
(0.564166280191 1.01500696386e-12 6.2249176996e-13)
(0.558971025348 9.78611060645e-13 1.01160727065e-12)
(0.55366066346 9.36910883751e-13 1.38319122286e-12)
(0.548230997204 8.91219151131e-13 1.73689160259e-12)
(0.542674289278 8.43124580935e-13 2.07214006705e-12)
(0.536979466297 7.93532487148e-13 2.38890547564e-12)
(0.531132274464 7.43390128367e-13 2.68726046825e-12)
(0.525115386395 6.93414426629e-13 2.96717909675e-12)
(0.518908452903 6.44020239187e-13 3.22905308954e-12)
(0.512488087562 5.9588891739e-13 3.4730051031e-12)
(0.505827765497 5.49424672302e-13 3.69917251124e-12)
(0.498897610846 5.04668765758e-13 3.90787677453e-12)
(0.491664039502 4.61844155041e-13 4.09900759428e-12)
(0.484089214427 4.20933692712e-13 4.27253298128e-12)
(0.47613025923 3.81991235614e-13 4.42828230084e-12)
(0.46773816016 3.45072502707e-13 4.56595720487e-12)
(0.458856265059 3.10123255279e-13 4.6849248782e-12)
(0.449418256926 2.77111156001e-13 4.78457712215e-12)
(0.439345435405 2.45973998127e-13 4.86388643598e-12)
(0.428543076902 2.16674174807e-13 4.92162357828e-12)
(0.416895558815 1.89218197447e-13 4.95614967973e-12)
(0.404259827018 1.63440432213e-13 4.96537093965e-12)
(0.390456680642 1.3950967683e-13 4.94655368324e-12)
(0.375259333187 1.17466562134e-13 4.89616756064e-12)
(0.358379068322 9.71762862811e-14 4.80957401271e-12)
(0.339449373998 7.88029508513e-14 4.68074855524e-12)
(0.318014968649 6.23466910096e-14 4.50185678734e-12)
(0.293545953839 4.79290054734e-14 4.26327516088e-12)
(0.265527874625 3.56149799884e-14 3.95448431527e-12)
(0.233713376865 2.54197297783e-14 3.56763658546e-12)
(0.198539332225 1.72739453062e-14 3.10434568583e-12)
(0.161325847475 1.09896062315e-14 2.58086169374e-12)
(0.12372325655 6.33075380112e-15 2.02200977152e-12)
(0.0868768238442 3.0447785688e-15 1.44818382503e-12)
(0.051243933325 9.95665706917e-16 8.70346128174e-13)