/*--------------------------------*- C++ -*----------------------------------*\
| =========                 |                                                 |
| \\      /  F ield         | OpenFOAM: The Open Source CFD Toolbox           |
|  \\    /   O peration     | Version:  3.0.1                                 |
|   \\  /    A nd           | Web:      www.OpenFOAM.org                      |
|    \\/     M anipulation  |                                                 |
\*---------------------------------------------------------------------------*/
FoamFile
{
    version     2.0;
    format      ascii;
    class       volVectorField;
    location    "50000";
    object      wallShearStress;
}
// * * * * * * * * * * * * * * * * * * * * * * * * * * * * * * * * * * * * * //

dimensions      [0 2 -2 0 0 0 0];

internalField   uniform (0 0 0);

boundaryField
{
    side_walls
    {
        type            calculated;
        value           nonuniform List<vector> 
100
(
(-0.00132613293054 -1.72945327578e-16 -1.81851994462e-15)
(-0.00132384278661 -1.67694930833e-16 -5.30486845204e-15)
(-0.00131955089554 -1.60392515366e-16 -8.5097017416e-15)
(-0.00131349907027 -1.48974102688e-16 -1.13921260622e-14)
(-0.00130589119321 -1.35554783729e-16 -1.39172197881e-14)
(-0.00129689971121 -1.19634015771e-16 -1.607904807e-14)
(-0.00128667065382 -1.02152609619e-16 -1.78687330872e-14)
(-0.00127532760427 -8.24182572334e-17 -1.92891092669e-14)
(-0.0012629748895 -6.19676440591e-17 -2.03487859203e-14)
(-0.0012497001593 -3.94954949954e-17 -2.10600255327e-14)
(-0.0012355764669 -1.68478270756e-17 -2.14388038669e-14)
(-0.00122066392997 6.98950311657e-18 -2.15061838859e-14)
(-0.00120501103129 3.07697397295e-17 -2.12834068017e-14)
(-0.00118865560627 5.51317122191e-17 -2.07939448595e-14)
(-0.00117162555773 7.89496887966e-17 -2.00626889146e-14)
(-0.00115393933404 1.02846077701e-16 -1.91171414472e-14)
(-0.00113560620546 1.25666851213e-16 -1.79820468609e-14)
(-0.00111662637349 1.47927160256e-16 -1.66870966947e-14)
(-0.00109699095044 1.68382493823e-16 -1.5258169534e-14)
(-0.0010766818505 1.87145038038e-16 -1.37270956673e-14)
(-0.00105567164082 2.04083381909e-16 -1.21195558777e-14)
(-0.0010339234105 2.18243279957e-16 -1.04648909388e-14)
(-0.00101139073004 2.29556965691e-16 -8.79217712232e-15)
(-0.000988017792424 2.37567688381e-16 -7.12768716448e-15)
(-0.000963739851784 2.41436312329e-16 -5.49977114995e-15)
(-0.000938484106187 2.41222385508e-16 -3.93449165233e-15)
(-0.00091217120446 2.36226494532e-16 -2.45636037379e-15)
(-0.000884717588972 2.2633666322e-16 -1.0890570169e-15)
(-0.000856038904816 2.11119158894e-16 1.46613136444e-16)
(-0.000826054693058 1.90652289157e-16 1.23223996671e-15)
(-0.000794694515039 1.65038550333e-16 2.15320516759e-15)
(-0.000761905492193 1.34687719025e-16 2.89859708039e-15)
(-0.000727660961566 1.00191029285e-16 3.46275565486e-15)
(-0.000691969527443 6.2563570604e-17 3.84506400707e-15)
(-0.000654883269986 2.32283804167e-17 4.0511256178e-15)
(-0.0006165033644 -1.62893377822e-17 4.09280391475e-15)
(-0.000576981077171 -5.42176546805e-17 3.98736475435e-15)
(-0.000536512308797 -8.88106040617e-17 3.75692676451e-15)
(-0.000495324765167 -1.18571352822e-16 3.4270175241e-15)
(-0.00045365844668 -1.42296846305e-16 3.02477892118e-15)
(-0.000411742026981 -1.59240533445e-16 2.57733140741e-15)
(-0.000369769049713 -1.68974681603e-16 2.11017658539e-15)
(-0.000327877842911 -1.71097657097e-16 1.64658434901e-15)
(-0.000286137229145 -1.6517492166e-16 1.20759969871e-15)
(-0.00024453677965 -1.50600790019e-16 8.121896324e-16)
(-0.000202975918062 -1.26474958934e-16 4.77574159971e-16)
(-0.000161239211099 -9.22980343436e-17 2.19123481657e-16)
(-0.000118927320616 -4.90168221235e-17 4.90214673807e-17)
(-7.5250891507e-05 -1.76701299819e-18 -2.69025667553e-17)
(-2.83577094069e-05 2.97981021421e-17 -1.13242981831e-17)
(-0.00132613266664 1.82070040406e-15 1.73299216749e-16)
(-0.0013238425344 5.31023553906e-15 1.68279304467e-16)
(-0.00131955066475 8.51717704947e-15 1.60373381121e-16)
(-0.00131349886926 1.1399669881e-14 1.4903146181e-16)
(-0.00130589102884 1.39258889702e-14 1.35730738532e-16)
(-0.00129689958872 1.60886687078e-14 1.19465281212e-16)
(-0.00128667057681 1.78766107601e-14 1.01809151561e-16)
(-0.00127532757457 1.92963405998e-14 8.24840308047e-17)
(-0.00126297490727 2.03564031905e-14 6.18163534834e-17)
(-0.00124970022316 2.10670708064e-14 3.94365076852e-17)
(-0.00123557657408 2.14451793575e-14 1.66599603492e-17)
(-0.00122066407656 2.15117507713e-14 -6.92290880986e-18)
(-0.00120501121248 2.12885679659e-14 -3.0776232491e-17)
(-0.00118865581663 2.07993275606e-14 -5.48622653341e-17)
(-0.00117162579143 2.00679498406e-14 -7.91433784213e-17)
(-0.00115393958513 1.91219977251e-14 -1.02872512059e-16)
(-0.00113560646804 1.79860751903e-14 -1.2588416458e-16)
(-0.00111662664192 1.66909634727e-14 -1.47881201215e-16)
(-0.00109699121946 1.52618370034e-14 -1.68447870578e-16)
(-0.00107668211539 1.37303001144e-14 -1.87303001722e-16)
(-0.00105567189743 1.21224874193e-14 -2.04221997211e-16)
(-0.00103392365534 1.0467489535e-14 -2.1834579962e-16)
(-0.00101139096031 8.79453810664e-15 -2.29624656604e-16)
(-0.000988018005993 7.12990956719e-15 -2.37633758903e-16)
(-0.000963740047197 5.50166272608e-15 -2.41566792903e-16)
(-0.000938484282599 3.93606036817e-15 -2.41390801979e-16)
(-0.000912171361606 2.45767717184e-15 -2.36336819286e-16)
(-0.000884717727101 1.09005608417e-15 -2.26446140297e-16)
(-0.000856039024579 -1.45779065687e-16 -2.11155144877e-16)
(-0.000826054795469 -1.23153866848e-15 -1.9074322532e-16)
(-0.000794694601378 -2.15273361058e-15 -1.65084968641e-16)
(-0.000761905563928 -2.89809788418e-15 -1.347118895e-16)
(-0.000727661020256 -3.46226968236e-15 -1.00276454086e-16)
(-0.000691969574703 -3.8447360099e-15 -6.26294191459e-17)
(-0.000654883307407 -4.0508567859e-15 -2.32444582361e-17)
(-0.000616503393506 -4.09258500871e-15 1.62826763143e-17)
(-0.00057698109938 -3.98722933998e-15 5.41667414586e-17)
(-0.000536512325393 -3.75683567397e-15 8.87933567989e-17)
(-0.000495324777287 -3.42691809596e-15 1.18556297326e-16)
(-0.000453658455305 -3.02469881378e-15 1.42301532748e-16)
(-0.000411742032939 -2.5772837304e-15 1.59244554508e-16)
(-0.000369769053685 -2.11014467073e-15 1.68982886953e-16)
(-0.000327877845447 -1.64655312419e-15 1.71106411891e-16)
(-0.000286137230677 -1.20758219322e-15 1.65176660603e-16)
(-0.000244536780511 -8.12194635057e-16 1.50599595727e-16)
(-0.000202975918498 -4.77578695499e-16 1.26482312023e-16)
(-0.000161239211288 -2.19124771707e-16 9.22931140329e-17)
(-0.000118927320678 -4.90248927197e-17 4.90151649614e-17)
(-7.52508915187e-05 2.69013681845e-17 1.76632236255e-18)
(-2.83577094069e-05 1.13236063704e-17 -2.97984095607e-17)
)
;
    }
    inlet
    {
        type            cyclic;
    }
    outlet
    {
        type            cyclic;
    }
    side_left
    {
        type            symmetryPlane;
    }
    side_bottom
    {
        type            symmetryPlane;
    }
}


// ************************************************************************* //
