/*--------------------------------*- C++ -*----------------------------------*\
| =========                 |                                                 |
| \\      /  F ield         | OpenFOAM: The Open Source CFD Toolbox           |
|  \\    /   O peration     | Version:  3.0.1                                 |
|   \\  /    A nd           | Web:      www.OpenFOAM.org                      |
|    \\/     M anipulation  |                                                 |
\*---------------------------------------------------------------------------*/
FoamFile
{
    version     2.0;
    format      ascii;
    class       volVectorField;
    location    "30000";
    object      grad(p);
}
// * * * * * * * * * * * * * * * * * * * * * * * * * * * * * * * * * * * * * //

dimensions      [0 1 -2 0 0 0 0];

internalField   nonuniform List<vector> 
21000
(
(0.265037045752682 0.00145673298356677 0)
(0.160109234289407 0.00083079688463506 0)
(0.185313329231946 0.00594649934094149 -1.35059314073497e-19)
(0.324763729680524 -0.0169728910617479 1.79669823333969e-19)
(0.226496586518726 -0.029694643164511 1.18189760167982e-15)
(0.110162172537687 -0.0241435047851253 0)
(0.053730215849811 -0.0146978856077215 2.21311299178922e-19)
(0.0402665924010328 -0.0111876586772476 -7.78904104647415e-20)
(0.0343250625450177 -0.00953954668901146 2.53090988862698e-15)
(0.0274030996411829 -0.0072490480209168 -2.47364654916192e-15)
(0.0224766133985001 -0.00545837328760471 2.92767039308709e-19)
(0.017623534111708 -0.00348962093648359 -4.59057661255398e-15)
(0.0141278099870656 -0.00192450610037222 -5.34467308716516e-19)
(0.0118171309248812 -0.000838202704449121 2.09557783830681e-15)
(0.0101531064254199 -3.54981399861291e-05 -2.01054097573916e-15)
(0.00906971382056671 0.000533932997499814 0)
(0.00856539442999334 0.000854898391080105 0)
(0.00873006787742995 0.000882166125299711 -1.80280617178716e-15)
(0.00969448954125741 0.000510607942272022 1.74608168881417e-15)
(0.0109424105337696 -5.86713522038424e-05 1.65592098889671e-18)
(0.0123134688226405 -0.000719204476310803 1.60299557927574e-18)
(0.0136380793862219 -0.0013815703181909 1.58101365385167e-15)
(0.0146177134145213 -0.00190484753959604 2.98179627362967e-18)
(0.0149008087690981 -0.0021274947757307 -1.43405341528074e-18)
(0.01407978766019 -0.00188357498902507 0)
(0.0127127855901481 -0.00139977016433621 -6.7885511825636e-16)
(0.0111444677751419 -0.000901651568879439 -6.5734916436292e-16)
(0.00910331412827907 -0.000361066997534933 2.4767423535904e-18)
(0.00662580822402101 0.000162562128547297 0)
(0.00369179973631199 0.000594204834526473 0)
(0.00123674744607161 0.000847692317907603 2.32837585734363e-18)
(-0.00675207621323085 0.00153032524950951 1.46880766410722e-16)
(-0.00741956281123007 0.00165162265471705 -8.57619605107363e-14)
(0.000503489092128035 0.00131895871651968 -8.71954048907736e-14)
(0.00585823910031181 0.000948833124212339 1.15756728507342e-18)
(0.0125370847650117 0.000554590235520713 -1.15756728507341e-18)
(0.0184485192520213 0.000231395350745373 1.15998488225555e-18)
(0.0241598160614121 -4.58552512245832e-05 1.88502709374651e-21)
(0.0292833927623959 -0.000270161603904018 2.28478514131158e-21)
(0.0340486136958585 -0.000457356108569209 -2.33096597208055e-18)
(0.0384230189850788 -0.000612152019090752 -2.99788837904653e-21)
(0.0425093183539967 -0.000742580351306752 1.16980916596353e-18)
(0.0463250210934982 -0.000852455205231884 0)
(0.0499118425447807 -0.000945521906706609 -1.18063459244125e-18)
(0.0532803219468332 -0.00102386903420631 -4.15710327338682e-21)
(0.0564424825355566 -0.00108921026065693 2.37398721668736e-18)
(0.0593982703429295 -0.00114259480957196 8.86375536920061e-14)
(0.0621463075210341 -0.00118483503862446 8.98804387622553e-14)
(0.064680909135784 -0.00121649885604272 -1.19867882261146e-18)
(0.0669953568085144 -0.00123804293428119 -1.20895263130787e-18)
(0.0690814994759369 -0.00125000537887935 1.20895263132135e-18)
(0.0709332302963872 -0.0012530374517074 -6.09938516996132e-19)
(0.0725468577579482 -0.00124762190089684 -9.10802138085436e-14)
(0.0739198136579586 -0.0012341017155428 -9.21773460551989e-14)
(0.0750509326208479 -0.00121302403881138 -6.15652419030074e-19)
(0.0759414489686397 -0.00118497154294056 0)
(0.0765948358361439 -0.00115055543403842 0)
(0.0770167561716228 -0.00111041349899512 9.10999415193106e-30)
(0.0772149260917161 -0.00106520072431655 -9.15379689068279e-30)
(0.0771989348677983 -0.00101557952951622 0)
(0.0769800154900159 -0.000962209654842274 0)
(0.0765707914551102 -0.00090573852644879 3.19774856835215e-19)
(0.0759850031266406 -0.00084679228997704 -3.19774856834052e-19)
(0.0752372328140066 -0.00078596799988435 3.22724568984786e-19)
(0.0743426310451339 -0.000723826955917203 -3.22724568984743e-19)
(0.0733166569085173 -0.00066088938686754 9.70807312328224e-14)
(0.0721748373914985 -0.00059763051304628 4.91304997106284e-15)
(0.070932549427411 -0.000534477864870849 -9.32766365105456e-14)
(0.0696048289103812 -0.00047180983686306 8.20990521089328e-20)
(0.0682062083870843 -0.000409955314113336 0)
(0.0667505829246066 -0.000349194257647708 0)
(0.0652511063495487 -0.000289759074229998 8.34147810115326e-20)
(0.0637201116907282 -0.000231836632807508 -8.34147810212233e-20)
(0.0621690615740511 -0.000175570736266609 0)
(0.0606085160284684 -0.000121064999098096 0)
(0.0590481259784729 -6.83857220507753e-05 0)
(0.0574966386856356 -1.75651622567789e-05 0)
(0.0559619294394088 3.13956677394047e-05 0)
(0.0544510231325716 7.85236669315282e-05 0)
(0.0529701694334572 0.000123871683570673 0)
(0.0515248473673356 0.0001675147636499 0)
(0.0501199149114963 0.000209550526714692 0)
(0.0487595321598298 0.000250093075393291 0)
(0.0474474574898261 0.000289279608315761 0)
(0.0461867888899767 0.000327260586084454 0)
(0.044980537073933 0.000364218491785304 1.0442055861433e-13)
(0.0438309447882948 0.000400328274603497 2.08665553928166e-13)
(0.0427407819774916 0.000435712026198772 1.04191878843008e-13)
(0.0417115119414581 0.000470537820885696 0)
(0.0407463741303848 0.00050522256462426 -1.40676697265569e-18)
(0.0398460164362069 0.000539896912977043 1.40676697264043e-18)
(0.0390153748702205 0.000575063984660546 1.41291999381939e-18)
(0.0382532916300751 0.000611032310732701 -1.41291999380663e-18)
(0.0375693505891887 0.000648594462779709 0)
(0.0369574765003536 0.000687659334847853 0)
(0.0364382029543233 0.000729784323219019 -1.42456249052635e-18)
(0.0359920736863598 0.000774214834797568 2.85193319920641e-18)
(0.0356658498462589 0.000824248605377542 -1.42737070868273e-18)
(0.0354032366211681 0.000877022480159606 1.43291574895854e-18)
(0.0353138775568576 0.000939811517983909 -1.432915748984e-18)
(0.0352495324510993 0.00100387993412826 1.43842133475001e-18)
(0.0354822034139852 0.00108760989682938 -2.87961110592382e-18)
(0.0356026360482165 0.00116699985765938 2.88515737530142e-18)
(0.0362510969643379 0.00128430338150701 -1.44396760414951e-18)
(0.0363944966799378 0.00137383170147344 0)
(0.0375599196986558 0.00153771293335332 1.45256619520772e-18)
(0.0371028468445263 0.00161388244002995 2.8948842730955e-21)
(0.0387164097113642 0.00192040127222501 -1.45447144400539e-18)
(0.0414321031763574 0.00295626348697161 2.9192841423713e-18)
(0.042239215911606 0.00431284557627759 3.73604354735405e-16)
(0.0442621217967648 0.00592387081553063 0)
(0.0448380854718402 0.00735559455976017 7.84191250012989e-16)
(0.0453283089245538 0.00869463441485905 0)
(0.0447523585546813 0.00962022979158584 8.38201409864714e-16)
(0.0435571182377856 0.0101378981956335 8.68303670865361e-16)
(0.0407046416820543 0.00978849561303396 1.81347174109334e-15)
(0.0354177453590947 0.00818520102347338 -3.78644731047581e-15)
(0.0279736990982622 0.00540584654786397 0)
(0.0182305310399875 0.00144091837826304 -2.05157189022562e-15)
(0.00643342970068006 -0.0035124472877885 0)
(-0.00730247985743997 -0.00926655573153204 0)
(-0.0211597748580601 -0.0149026116665863 2.2663776711747e-15)
(-0.0326924093665296 -0.0195629997212903 2.28424644002472e-18)
(-0.0439536480764266 -0.0243066820605098 0)
(-0.0582751339773953 -0.0304475729995216 0)
(-0.0755512441555433 -0.0379769299827992 0)
(-0.100728935420978 -0.0490141525143563 0)
(-0.136782992164961 -0.0649189194284408 -5.91418597805456e-19)
(-0.203440218480883 -0.0934261875151571 2.89598503908008e-15)
(-0.31265188922768 -0.136458936793327 -2.98031672133047e-15)
(-0.456130840491606 -0.187680615178273 0)
(-0.646440344788403 -0.247040513914931 2.44441280729382e-18)
(-0.905865558784616 -0.312082059009331 -8.56870269708875e-20)
(-1.22192379327465 -0.356486796105485 -2.70270746392841e-15)
(-1.46074650596717 -0.312794857646843 2.40562721433145e-15)
(-1.17019380259824 -0.10465069674379 1.23097879484852e-19)
(-0.284632543319056 0.0658858536759442 -4.77148914093189e-16)
(0.289504698243983 0.0585207642626569 2.41032078166899e-16)
(0.529330858915578 0.0243751193321153 -5.96321899235003e-20)
(0.463710399340521 0.00590236386574685 0)
(0.264726772241096 0.00449505019787023 0)
(0.160335859471904 0.00539975022126653 0)
(0.185006486649009 0.0152929194759318 0)
(0.320156517537877 -0.030808855746622 5.47539491233219e-16)
(0.217067517073665 -0.0559878551945634 0)
(0.100322305409303 -0.0452898374485958 0)
(0.0461115933101057 -0.0279194409735749 2.46077598654951e-15)
(0.0332500894632709 -0.0212359664367374 0)
(0.0279594867467048 -0.0178910250705413 -2.83239483689018e-20)
(0.0225709925250958 -0.0133971333702663 4.79261506835426e-15)
(0.0189796880831697 -0.00989747947622184 -2.83588831778026e-19)
(0.0156405776654316 -0.00615244473043164 2.22397879245382e-15)
(0.013296188509527 -0.00318392100721621 -2.12070283843152e-15)
(0.0117391201765256 -0.001129579537917 2.02723998868132e-15)
(0.0106063849144878 0.000380370362384481 1.94887636364212e-15)
(0.0098780188303851 0.00145387310133299 1.87259044174647e-15)
(0.00956032919839337 0.00208161449822037 -1.80770225997356e-15)
(0.00972238801232519 0.00219180747670076 -1.70796443194124e-18)
(0.0104606291034313 0.00160194689093868 -8.21840855170226e-22)
(0.0113788894924471 0.000646618547906859 1.60458554593252e-18)
(0.0123780193092497 -0.000483294504441418 1.55333729552292e-18)
(0.0133521880243905 -0.00163690418189983 -1.53810277808763e-15)
(0.0140883903276858 -0.0025803539459781 1.44421130917964e-18)
(0.0143134997642931 -0.00304043253904961 0)
(0.0136439832200459 -0.00272459735041011 -1.36861211252911e-15)
(0.0124831005525553 -0.00198600299656669 -6.58032166372617e-16)
(0.0110794619775022 -0.00120976293910227 -2.48032264626057e-18)
(0.00916860794722211 -0.000368905553933023 -6.964728213052e-14)
(0.00676023745014861 0.000438063341424741 1.10606651786355e-15)
(0.00382133305368324 0.00105013798523813 7.3331284041971e-14)
(0.00134128954702609 0.00146272390771084 -2.25740326203915e-18)
(-0.0066900800901407 0.00219751470667371 -2.2417176487626e-18)
(-0.00737566784435019 0.00224097620683875 8.45279956299428e-14)
(0.000539563302007969 0.00231332027339136 8.31856244406988e-14)
(0.00587309762971713 0.00197134959140709 0)
(0.0125574511282912 0.00167969286038336 0)
(0.0184693253407849 0.00144188708705428 0)
(0.0241812991492672 0.0012681241761229 0)
(0.0293038469498687 0.00112817943528659 -8.20414916155548e-30)
(0.0340678651556656 0.00101517311724171 1.13133870950019e-18)
(0.0384406089162049 0.000916056386852568 -1.13133870950921e-18)
(0.0425251932464943 0.000826622705532913 1.13746238377385e-18)
(0.0463390728865251 0.000741819351565597 -1.13746238378704e-18)
(0.0499240663614245 0.000659730780850075 0)
(0.0532907042669469 0.000578478453071304 0)
(0.0564510445562065 0.000497346359180729 0)
(0.0594050436199733 0.000415788950091046 -8.68132168287091e-14)
(0.0621513464912921 0.000333735939923675 -8.62733453363462e-14)
(0.0646842836739079 0.00025122405684314 0)
(0.0669971384656706 0.000168500972420349 0)
(0.0690817532519567 8.52599822287194e-05 7.56090333895857e-14)
(0.0709320553430673 1.87350522016933e-06 7.65926800512976e-14)
(0.0725444053832042 -8.05771591250415e-05 8.89694317099896e-14)
(0.0739162423835764 -0.000161749757283627 8.871309679494e-14)
(0.0750463921470337 -0.000241256945997467 5.96931548432175e-19)
(0.0759360969965463 -0.000318627228826021 0)
(0.0765888337667511 -0.000393403311711387 0)
(0.0770102654159607 -0.000465154027007927 -8.83282200963423e-30)
(0.0772081050549761 -0.000533484683994594 8.87529204731754e-30)
(0.0771919361813222 -0.000598043695388683 0)
(0.0769729835672094 -0.000658528085358251 -6.17199435573946e-19)
(0.0765638604317401 -0.000714686798755623 9.27246839085222e-19)
(0.0759782952115544 -0.000766322595319695 -3.10047403509078e-19)
(0.0752308570670728 -0.000813292546016274 0)
(0.0743366825780756 -0.00085550689045031 0)
(0.0733112164823697 -0.000892926998010082 -9.42919597476767e-14)
(0.0721699713793661 -0.000925562213122794 -4.48056177637909e-15)
(0.0709283101014119 -0.000953465937278917 9.03205169024522e-14)
(0.0696012550030974 -0.000976731051303701 -9.28612816835455e-30)
(0.0682033258767625 -0.000995485028464253 0)
(0.0667484059914267 -0.00100988464497878 0)
(0.0652496384548048 -0.00102011088498585 9.39753193001848e-30)
(0.0637193467315813 -0.0010263634755028 0)
(0.0621689850716338 -0.0010288562501915 0)
(0.060609106326866 -0.00102781190409665 0)
(0.0590493554071458 -0.00102345789208111 -3.28148324929135e-19)
(0.0574984746705877 -0.00101602188708264 3.28148324929134e-19)
(0.0559643355459414 -0.00100572865233889 0)
(0.054453960027579 -0.000992795595901475 6.62646661719056e-19)
(0.0529735957594132 -0.000977431344454922 -6.62646661717885e-19)
(0.0515287205217088 -0.000959830180245161 -6.6659856566867e-19)
(0.0501241917162714 -0.000940173933917946 6.6659856567154e-19)
(0.0487641694980936 -0.000918622907009027 6.70338169908945e-19)
(0.0474524131024705 -0.000895321387575375 -6.70338169911731e-19)
(0.0461920220761342 -0.000870378796277751 0)
(0.0449860080499072 -0.00084394399956955 -1.00537050846603e-13)
(0.0438366042128088 -0.000816122062616488 -2.02270681095345e-13)
(0.0427465795089311 -0.000787208399277154 -1.01773192726998e-13)
(0.0417174208504497 -0.000757224674781135 3.15520738954305e-21)
(0.0407523650440131 -0.000725813749939296 -1.36086509544169e-18)
(0.0398520560960092 -0.00069225538129903 -1.36696143743533e-18)
(0.0390214550345502 -0.000656530896732634 1.36696143746105e-18)
(0.0382594025376174 -0.000618975000891242 0)
(0.0375754686223474 -0.000579237972143918 0)
(0.0369635814175506 -0.000536973350493199 0)
(0.0364442902965532 -0.000491579863403683 0)
(0.0359981306614259 -0.000442477458366556 0)
(0.0356719006053863 -0.00038874435651452 0)
(0.0354092435823613 -0.000329436289124963 0)
(0.0353198859532319 -0.000263662704536807 0)
(0.0352554565080676 -0.000190561127522774 0)
(0.0354884411321916 -0.000107369775555729 0)
(0.0356089799100792 -1.0068610818442e-05 0)
(0.036258320052458 0.000101006665344527 0)
(0.0364017961165844 0.000229965806961791 0)
(0.0375708619107057 0.000370333860660878 0)
(0.0371232648182994 0.000547154893525574 -2.82231808323457e-18)
(0.0388196672590036 0.000789341661408424 2.54075156348959e-17)
(0.0416729329261949 0.00248655598552058 0)
(0.0424216208722005 0.004831463739434 0)
(0.0441346272817636 0.00763298977902642 7.42554239338502e-16)
(0.0442255322030221 0.0101725814191201 -7.60285051928016e-16)
(0.0440755797739455 0.0125446362046844 -7.83253486168296e-16)
(0.042826135231113 0.0142074061141678 8.11034102260081e-16)
(0.0409927769124032 0.0151367337061451 0)
(0.0377587916403117 0.0145703171560738 -1.75944079326857e-15)
(0.0326970217376275 0.011868422651288 -7.92681061422324e-20)
(0.0261886438260924 0.00718221157278983 1.86859101715638e-18)
(0.0181522173018518 0.000503301784530395 -3.88242678204996e-18)
(0.00876342072151062 -0.00784627466527987 4.02615989750476e-18)
(-0.0019600500480736 -0.017525330880303 -2.08227987057658e-18)
(-0.012687458408169 -0.0270174754248911 -2.197820032203e-15)
(-0.0214834404721429 -0.0350427789943236 2.26403979563847e-15)
(-0.0298394412824131 -0.0435232357363585 1.13907713170006e-18)
(-0.0402622978672352 -0.0546453285173607 -1.18106635766931e-18)
(-0.0525392207313181 -0.0685162745245906 2.50108070251228e-15)
(-0.0702303117197691 -0.0889645083427269 2.59531372022075e-15)
(-0.0953183269142758 -0.118810218217862 -2.69819434038634e-15)
(-0.142274938715154 -0.171770115492171 0)
(-0.222106304321038 -0.250842696822473 0)
(-0.332938701229284 -0.34475969046267 0)
(-0.491646035075951 -0.452452193131185 2.90266677540798e-15)
(-0.728264507032521 -0.564404202107709 4.3803357425853e-20)
(-1.0533143183787 -0.619701563045366 0)
(-1.3609617473792 -0.477590239654381 -1.16499297962076e-15)
(-1.17943517165546 -0.0143016198474398 0)
(-0.318346184009917 0.288379567083344 4.62595015320126e-16)
(0.277231982839957 0.185846902392154 -1.70974068570056e-19)
(0.526264796485905 0.0667686597430054 5.78390217834147e-20)
(0.462472059611308 0.0164149297535188 0)
(0.264478620955687 0.0124726047807904 0)
(0.160822269339434 0.0168256338403877 -6.25648531030439e-20)
(0.185489939504185 0.0325148250917702 -6.4309372746455e-20)
(0.321437703963064 -0.0147726520828885 -2.94318706376372e-21)
(0.220171002891125 -0.0460851487003219 1.34150927687732e-19)
(0.105356413591443 -0.0370190247343721 -1.16122927325646e-15)
(0.0494251251977023 -0.0238233204978563 -2.38380409869371e-15)
(0.0352029110176092 -0.0190003293870474 -7.3092634240709e-20)
(0.0294745597989453 -0.0163347188932653 -1.6225799047421e-19)
(0.0236850306635087 -0.0124184299826359 -2.32133548132284e-15)
(0.0197894050450801 -0.00928225698552379 0)
(0.0161644787898317 -0.00585777860457453 -2.15421878542224e-15)
(0.0135929903135325 -0.00308057860568766 5.26742656459937e-19)
(0.0118827389546792 -0.00114158626178568 -5.66566022505639e-21)
(0.0106490826804774 0.000291407072266128 1.88632590723126e-15)
(0.00983926165232805 0.00130641804447583 -1.81519916578213e-15)
(0.00945887101415827 0.00190520677286368 1.75150055262914e-15)
(0.00956447843709236 0.00201298413360011 -1.69262376469435e-15)
(0.0102728949304525 0.00145102550793995 -3.20830136506177e-18)
(0.0111662468118132 0.000500771238915867 1.55482211415303e-18)
(0.012132183619279 -0.000658731079243806 1.54075883000445e-15)
(0.0130632585152259 -0.00188614191488233 -1.45333703172757e-18)
(0.0137495961438508 -0.00296038663989448 1.43658793258727e-15)
(0.0139272079443124 -0.0036143141952966 1.34949048362505e-18)
(0.013205711228194 -0.00354073885217175 1.32135126498796e-15)
(0.0120109712471517 -0.00301299085546221 6.37849652995561e-16)
(0.0106145847489202 -0.00238413905186406 -1.07157805568852e-13)
(0.00875006214700331 -0.00163545009989976 -3.96068190482515e-14)
(0.00641147018510475 -0.000851228209459694 -3.72081964926895e-15)
(0.0035572950370159 -0.000224124987907537 -6.97798608265491e-14)
(0.0011918415316525 0.000388645202899791 2.77990897799144e-16)
(-0.00679947519090104 0.000915381323337978 0)
(-0.00735983028797547 0.000810687461945522 -1.73948468680934e-17)
(0.000584326571165805 0.00107541903320492 0)
(0.00588783048031957 0.000854413133535306 -1.05510077882442e-13)
(0.0125798035337037 0.000676748531894655 -1.0728630639229e-13)
(0.0184930645271645 0.000544418080665129 -1.09052403583953e-18)
(0.0242062092086916 0.000469714394388473 2.18282276666895e-18)
(0.0293268619880049 0.000398227894013248 2.1501192291846e-21)
(0.0340889784255569 0.000332284515516076 -2.1913969572246e-18)
(0.0384592657043669 0.000257187440290496 -2.81966773189616e-21)
(0.042541599280429 0.000175963368897035 1.0997677748784e-18)
(0.0463532287811778 8.55646344953506e-05 -1.10628516084816e-18)
(0.0499361325953142 -1.19687926123841e-05 1.10628516084606e-18)
(0.053300756934489 -0.000116791979903487 0)
(0.0564591929975969 -0.000227572861408204 0)
(0.0594113705600243 -0.000343735675714005 0)
(0.0621559448108308 -0.000464361302578562 0)
(0.064687240928595 -0.000588695835584609 -1.13164877181601e-18)
(0.0669985018922847 -0.000715873127551591 1.13164877179471e-18)
(0.0690816014822359 -0.000845338597549085 -7.39402968024662e-14)
(0.0709306039894073 -0.000974635797104476 -7.36316964650368e-14)
(0.0725418339813852 -0.00110180649297391 0)
(0.0739126643528486 -0.00122696622882821 0)
(0.075041958881286 -0.00134918473341353 0)
(0.0759309741049891 -0.00146741488740052 0)
(0.0765831891406447 -0.00158067025182222 0)
(0.0770042662508958 -0.00168802761188292 -5.8994618724525e-19)
(0.0772019145790863 -0.00178864950062213 5.89946187250371e-19)
(0.077185710766865 -0.00188179643324815 0)
(0.0769668701475685 -0.00196683840177104 5.98427144874354e-19)
(0.0765579943538129 -0.00204326154474088 -2.97810346827811e-19)
(0.0759727985061709 -0.00211067216694405 -3.00616798046528e-19)
(0.0752258372098593 -0.00216879757031188 0)
(0.0743322317086924 -0.00221748309520518 -3.04750536027863e-19)
(0.0733074110552569 -0.00225668723265646 4.57797626999964e-19)
(0.0721668722270817 -0.00228647391523198 -1.53047090973099e-19)
(0.0709259628536376 -0.00230700314185607 0)
(0.0695996908013577 -0.00231851996841136 -3.87490758685606e-20)
(0.0682025623362628 -0.00232134291447537 3.87490758685606e-20)
(0.0667484483344336 -0.0023158513931688 3.9058264209789e-20)
(0.065250480786828 -0.00230247385481347 -3.90582642097882e-20)
(0.0637209733660607 -0.00228167492930485 0)
(0.0621713719098336 -0.00225394505313281 -1.57984777942779e-19)
(0.0606122222167877 -0.00221978817333029 4.75065290601486e-19)
(0.0590531634691102 -0.00217971323942334 1.08238090646475e-21)
(0.0575029335151204 -0.00213422356816869 1.05396686047202e-21)
(0.0559694004957307 -0.00208381132434751 -3.19216860426146e-19)
(0.054459584081318 -0.00202894658943498 0)
(0.0529797307322629 -0.00197007761787311 0)
(0.0515353176004328 -0.00190761506347888 6.46313106258459e-19)
(0.050131202655139 -0.00184194457240527 1.83770194124893e-21)
(0.0487715467746746 -0.0017733952706714 -6.48150808196957e-19)
(0.0474601115418163 -0.00170227408993301 0)
(0.0461999920313674 -0.0016288521401126 0)
(0.0449941985064326 -0.00155355675952918 0)
(0.0438449557413177 -0.00147659246053366 0)
(0.0427550425335167 -0.00139685806263711 0)
(0.041725983206818 -0.00131388510513001 -1.31945118077582e-18)
(0.0407610961796309 -0.00122892118280325 -2.98842802922723e-21)
(0.0398609814516759 -0.00114223428451136 1.32243960879185e-18)
(0.0390304733582766 -0.00105379677588621 1.32822359052763e-18)
(0.0382684168051707 -0.000962868412982503 -2.6592528565441e-18)
(0.0375844959820033 -0.000869556924880325 2.6648140654681e-18)
(0.0369725842873312 -0.000772453850986107 -2.67028026944751e-18)
(0.0364533287736266 -0.000672227605257191 1.33649547006444e-18)
(0.0360071131291895 -0.000565841949065313 1.34180795760497e-18)
(0.0356810026574147 -0.000455806726918437 2.6159774502246e-21)
(0.0354182122696851 -0.000335232851018191 -1.34442393504207e-18)
(0.0353290938445543 -0.000211803371215835 0)
(0.0352642824316211 -6.99454334933236e-05 0)
(0.0354982384710484 6.93436324658913e-05 0)
(0.0356182100326084 0.000246002393106238 0)
(0.0362699272555954 0.000403862679590225 -2.72013870956088e-18)
(0.0364116207509857 0.000633815535675861 1.34174769312298e-13)
(0.037587217038549 0.000793800075699897 1.32299460904962e-13)
(0.0371346537326778 0.00109354621906529 -2.73098926173207e-18)
(0.0388849676238966 0.00109735925000343 -2.46398495482831e-17)
(0.0418376635385418 0.00267605183707774 2.7382916713063e-18)
(0.0426980750352427 0.00460461500701022 -2.76885993241124e-18)
(0.0445240457418325 0.00707658597481754 -7.17141307197384e-16)
(0.0447558532474117 0.00925446583546684 2.88303198407599e-18)
(0.0447805360322827 0.0112456052870758 7.59345847904027e-16)
(0.0437348708638371 0.0125083701480046 -1.57246774270103e-15)
(0.0421338561014727 0.0130020663901663 -3.18987702708123e-18)
(0.0391048409126802 0.0120143269623873 3.33433210778927e-18)
(0.0341814747643504 0.00899590730087604 -5.26347083037636e-18)
(0.0276895176888848 0.0041866179617249 1.80850141101583e-18)
(0.0194982126747877 -0.00237579463575878 -1.92465953074475e-15)
(0.00977828323258634 -0.0103602569952944 -1.99966760004832e-15)
(-0.0014537841226212 -0.0193632440806167 2.06560914292947e-15)
(-0.0127218200964218 -0.0280169547783008 2.12958610712607e-15)
(-0.021934122567843 -0.03543576748768 -4.38495204767806e-15)
(-0.030662434240926 -0.0436095758940332 -1.10937882485923e-18)
(-0.0415940093599389 -0.0543768663285102 -2.34048094343039e-15)
(-0.054531459473515 -0.0679104259665949 -4.8456667870374e-15)
(-0.0734308884349272 -0.0876985017474202 -2.5143267492953e-15)
(-0.100655592844821 -0.116548467653726 0)
(-0.152697543034976 -0.165711415180848 -6.57699002914042e-19)
(-0.242039609789958 -0.235140275999331 3.49626760241414e-19)
(-0.366888423600862 -0.312550156331676 3.48922908176546e-19)
(-0.545649837512867 -0.393104851022093 2.80352087716757e-15)
(-0.810548568942369 -0.456963030808999 1.22452216133319e-19)
(-1.16986701781739 -0.428039450835046 -2.52450132429789e-15)
(-1.50196060895179 -0.160290094345507 -1.12622156414296e-15)
(-1.30447423695394 0.40847079070872 -9.766019119895e-16)
(-0.38606503990412 0.646237748973735 4.50116311294945e-16)
(0.253126288594809 0.36272372201337 1.09789308849729e-19)
(0.519720665932678 0.121865568144051 2.9152199473926e-17)
(0.460536942380521 0.0261596502754712 0)
(0.264238452454833 0.0287579751484256 0)
(0.161689567586567 0.0338650266050713 -1.21339660982654e-19)
(0.187084101183396 0.0627492283491932 -2.48915472566761e-16)
(0.323417129439292 0.00772187252789798 0)
(0.220914228045541 -0.0421371680705354 0)
(0.108596061365902 -0.0321702242864514 2.25064503646928e-15)
(0.052144322694977 -0.0204150343427929 2.30982392718184e-15)
(0.036668654604303 -0.0173004577910952 0)
(0.030454654417924 -0.0153968832242664 -2.30043333335487e-15)
(0.0243958404417215 -0.0118930895776901 -2.74681183645822e-19)
(0.0202976311305855 -0.00900239843668469 2.65296551687245e-19)
(0.0165293162744656 -0.00573994835265767 2.08619709652329e-15)
(0.013836860929113 -0.00303600019879345 1.99109973545316e-15)
(0.0120403846689319 -0.00113358948137052 -1.90451341658698e-15)
(0.0107481150824159 0.000275642281593258 -1.82751863515483e-15)
(0.00988049675403856 0.00126374033629572 0)
(0.00943952559810414 0.00183750447584871 1.65761989217017e-18)
(0.00947452153174626 0.00192558844801166 -3.23081922152814e-18)
(0.0101114962406626 0.00134092461263535 -7.60913820657041e-22)
(0.0109194119545462 0.000322675459965616 1.5065820791688e-18)
(0.0117801693219501 -0.000956853054891846 -1.49153600543914e-15)
(0.0125909839695254 -0.00236232549627759 1.44012656670616e-15)
(0.0131560973264329 -0.00367598338644718 -1.38677575382359e-15)
(0.0132280529344959 -0.0046330353348491 -1.3399971682522e-15)
(0.0124219575211567 -0.00490412862360375 2.51220720668855e-18)
(0.0111921355575752 -0.00467175433840111 1.96799601473545e-21)
(0.00981282925408782 -0.00428025999030187 1.06052239801135e-13)
(0.00802254100077064 -0.00370299662004362 1.03056179659085e-13)
(0.00579741754511133 -0.0030050536984208 -5.60498783328482e-16)
(0.00309422653879824 -0.00239818151965081 -2.15237507854596e-18)
(0.000865175734867548 -0.00170778697305746 -2.71659735065797e-16)
(-0.00704277287865507 -0.00171579496009033 -1.34940260001181e-16)
(-0.00733869267439751 -0.00134336951299577 -1.89738561440475e-17)
(0.000656219162995277 -0.000749683280728334 2.10937753028393e-18)
(0.0059285824923943 -0.000635164006554562 1.03979143768702e-13)
(0.0126250349515704 -0.000510546007420407 1.02345813531123e-13)
(0.0185371121114525 -0.000394154422356753 0)
(0.0242469937444154 -0.000279854283548719 2.11818929077866e-18)
(0.0293609665934716 -0.000232367654895888 -2.11818929078963e-18)
(0.0341170468219347 -0.000232999263904658 0)
(0.0384814080886635 -0.000289879054576184 0)
(0.0425587508635505 -0.000388004072717429 0)
(0.0463659114809444 -0.000524680436837351 0)
(0.0499449490390795 -0.000691583681325512 0)
(0.0533060956319787 -0.000885355591035204 0)
(0.0564614154440121 -0.00110131546992574 0)
(0.0594107358971008 -0.00133671550127267 0)
(0.0621526934629833 -0.00158840026044861 -1.09265083196167e-18)
(0.0646815898422444 -0.00185243936559308 1.09265083197139e-18)
(0.066990685398233 -0.00212761581975374 0)
(0.069072004471614 -0.00241191307450888 0)
(0.0709196490381389 -0.00269827393966049 -1.11195785922299e-18)
(0.0725297264164163 -0.00298353324090614 -5.15465344117715e-21)
(0.0738995817947307 -0.0032667761657553 1.11711251265259e-18)
(0.0750281804257576 -0.00354511914626719 -5.63848369240834e-19)
(0.0759167857287651 -0.00381569985990524 5.6384836923492e-19)
(0.0765688717596961 -0.00407581594624538 0)
(0.0769900915352586 -0.00432295221501555 0)
(0.0771881398459518 -0.00455483328577836 0)
(0.0771725748008594 -0.00476945526004089 0)
(0.0769545896054238 -0.0049651126961494 5.80222470626141e-19)
(0.0765467609909155 -0.00514041398183454 -5.80222470627199e-19)
(0.0759627771625727 -0.00529428873055703 0)
(0.0752171646718162 -0.00542598671980781 0)
(0.0743250163597956 -0.0055350678229602 2.95477903611129e-19)
(0.0733017332416187 -0.0056213863566521 -2.95477903610632e-19)
(0.0721627852893049 -0.00568506912228145 0)
(0.0709234947038746 -0.00572648935753781 0)
(0.0695988459253784 -0.00574623723879126 0)
(0.0682033241239368 -0.00574508903756602 0)
(0.0667507815976732 -0.00572397474474626 0)
(0.0652543344201107 -0.00568394715247628 0)
(0.0637262829776366 -0.00562614997733201 0)
(0.0621780624518497 -0.00555179067520298 0)
(0.0606202104847042 -0.0054621113046296 -3.07430374300799e-19)
(0.0590623604600069 -0.00535836610888442 6.15910132126653e-19)
(0.0575132465160138 -0.00524179707319378 -3.08479757825237e-19)
(0.0559807351415378 -0.00511361860035215 0)
(0.0544718458910681 -0.00497499441818284 -6.22928141715466e-19)
(0.0529928269508893 -0.0048270335860785 6.22928141714336e-19)
(0.0515491579742013 -0.00467076140053819 0)
(0.0501457013994725 -0.00450713621806014 0)
(0.0487866225668097 -0.00433699679632734 0)
(0.0474756847520139 -0.00416114184728578 0)
(0.0462159723131946 -0.00398036918638797 -6.33487864221933e-19)
(0.0450105031699186 -0.00379440372867578 6.33487864228443e-19)
(0.0438616710352729 -0.00360295320620612 1.2732918319268e-18)
(0.0427723165057039 -0.00340773589067591 3.03980835660973e-21)
(0.0417436676784624 -0.00320947541193366 -1.2763316402967e-18)
(0.0407788823492872 -0.00300790513674395 -1.28219647899892e-18)