/*--------------------------------*- C++ -*----------------------------------*\
| =========                 |                                                 |
| \\      /  F ield         | OpenFOAM: The Open Source CFD Toolbox           |
|  \\    /   O peration     | Version:  3.0.1                                 |
|   \\  /    A nd           | Web:      www.OpenFOAM.org                      |
|    \\/     M anipulation  |                                                 |
\*---------------------------------------------------------------------------*/
FoamFile
{
    version     2.0;
    format      ascii;
    class       volTensorField;
    location    "30000";
    object      grad(U);
}
// * * * * * * * * * * * * * * * * * * * * * * * * * * * * * * * * * * * * * //

dimensions      [0 0 -1 0 0 0 0];

internalField   nonuniform List<tensor> 
21000
(
(0.0666733308617304 -0.00302919826769697 0 20.4480168089695 -0.0360446456565373 0 0 0 0)
(0.231487700009185 -0.0200376134988635 1.04999956565748e-20 22.944856858511 -0.278293494076666 9.11804789905795e-23 0 0 0)
(1.29600617230302 -0.106989833539513 3.91053648180229e-21 18.5959719893642 -1.26622728998458 2.14483540106803e-19 -2.12822696493984e-21 2.14559253482106e-22 3.39033891194019e-41)
(0.429651468783693 -0.046400338545536 -3.39941906264287e-16 3.80493497845613 -0.494012441936274 -1.26948377178316e-15 -7.67113802584291e-18 9.9637139278102e-19 2.55439297249614e-33)
(-2.2728180560529 0.828993472704154 -6.04883088958033e-16 -6.13680955769541 2.19457226033044 -1.73323546738789e-15 0 0 0)
(-3.74031040163188 1.90784410737388 9.40461735563205e-17 -7.34046630438496 3.68335875348069 1.46008668230547e-18 0 0 0)
(-3.16687629663735 1.99850686478249 -2.9652367608163e-15 -5.02520873713741 3.13568459899438 -4.62583793763243e-15 4.7204244850983e-17 -2.94527735281406e-17 4.34393776977051e-32)
(-2.65571755928667 1.92345981285156 -2.14754208557885e-16 -3.65797424806431 2.63334682147566 5.99160756436541e-19 6.64868187892944e-22 -4.38352813955913e-22 4.88025467062317e-41)
(-2.32487851362746 1.82871427321396 -2.11856866484881e-15 -2.93880382035298 2.30369953091224 -2.93569610397994e-15 -2.97089423320316e-17 2.32887676320872e-17 -2.96635023995051e-32)
(-1.95480119097136 1.61459560542685 -4.52024357982929e-15 -2.35353014251456 1.9399122303571 -5.67568868921633e-15 2.42560000436704e-17 -1.99935693597953e-17 5.84406218498275e-32)
(-1.63802440246687 1.3816993702398 2.68852699058667e-16 -1.9298668401845 1.62650726419205 -9.57024671115593e-18 -9.60745384183069e-22 8.20211768067985e-22 1.13866671908179e-35)
(-1.34065168703893 1.12867216631877 1.28454806774288e-15 -1.58406015570485 1.33379046225744 1.47469315486649e-15 1.64490224846527e-17 -1.38501059951648e-17 -1.53591690582335e-32)
(-1.12459765807731 0.930570862043397 2.85400138715847e-15 -1.35420036964307 1.12134539115237 4.3310183909197e-15 1.83775304238684e-21 -1.53085069528183e-21 -1.38083706884974e-35)
(-0.994949368970522 0.8100760897974 -5.6711906366481e-15 -1.22050475489559 0.994394828428785 -7.27672221084324e-15 -3.0112336704454e-21 2.44811838033528e-21 3.49906353719346e-37)
(-0.933510622627451 0.750184715367706 -8.78363704882418e-16 -1.16256832822189 0.93479678304975 -1.44230366200305e-15 1.17816249851462e-17 -9.47317167576064e-18 1.44542237987973e-32)
(-0.936417723329954 0.745303070739995 -3.72182829311589e-15 -1.17963064744597 0.939381819342794 -4.3752697104961e-15 0 0 0)
(-1.00136489755915 0.79067401948153 3.7206931207719e-15 -1.27225063964361 1.00512003274814 4.38345027534208e-15 0 0 0)
(-1.12037606576197 0.879040392096875 2.0205423881681e-15 -1.43248874826674 1.12459823096907 3.00806771163463e-15 -7.58909060024892e-21 5.94039661183784e-21 -5.31877777245022e-37)
(-1.27816144735405 0.996635134583918 -2.58827139671777e-15 -1.64238217424662 1.28169870582197 -2.96352944996108e-15 1.60364476158214e-20 -1.2473826984982e-20 2.93381833152593e-35)
(-1.43429971075085 1.10547577825918 2.85158323809885e-16 -1.86127947266798 1.43666605696654 -2.93119407861119e-17 -8.41287034705911e-21 6.50888055925966e-21 -2.79282930647657e-35)
(-1.56543131740292 1.17844920781884 -3.2668942595298e-16 -2.07591832431806 1.5664918848699 1.95667543879164e-17 -1.07513287726198e-20 7.90860357021913e-21 -2.936896361749e-35)
(-1.65560082563795 1.20109948798933 9.9666992524519e-16 -2.27369355020084 1.6553134484508 1.40451941035519e-15 -2.21485347447318e-17 1.61216325990508e-17 1.37212434366207e-32)
(-1.68662346272636 1.16113522855956 3.05032201078004e-16 -2.43614961592714 1.68539183340817 -3.74678790724852e-17 -2.30902963214473e-20 1.57698881174381e-20 -2.78892495341185e-35)
(-1.6447197006613 1.05456000603474 2.62472405960631e-18 -2.54554460730826 1.64328297732712 3.03475295811858e-18 1.15282251247155e-20 -7.64988930491033e-21 2.67940315759039e-38)
(-1.52771312045985 0.891249988469302 2.92169626716774e-15 -2.59267003015866 1.52697088292634 4.66265619532525e-15 0 0 0)
(-1.36232062981537 0.704367967236989 2.31144428297492e-15 -2.60289054086664 1.36339207905872 4.05121684222794e-15 0 0 0)
(-1.17293068049467 0.524333444374094 6.23257276269856e-16 -2.58328080066009 1.1752243897828 1.74634767797682e-15 2.14541120746034e-20 -9.10547247289654e-21 -2.89654296804431e-35)
(-0.962118149283579 0.360078917689813 1.09351545812315e-13 -2.51682458177175 0.965725350561141 2.85285250086652e-13 -2.07677377748328e-20 8.81416410875021e-21 2.80387482850381e-35)
(-0.745349329718873 0.222666107389879 -1.47981661033721e-15 -2.4148059661366 0.749860495335163 -4.75581476813674e-15 0 0 0)
(-0.540351821626209 0.119073731634995 -7.76697683584837e-14 -2.30777094504549 0.54509325045347 -3.28279750537925e-13 0 0 0)
(-0.356098169651782 0.0488637126904218 -4.51430055704757e-17 -2.26303231363455 0.36281400399053 7.00483122505824e-18 -1.54992866929104e-20 1.96787711338976e-21 -7.25625741782726e-36)
(-0.200281967323613 0.00897300834607677 2.63887335856888e-14 -2.2506051974359 0.198694476293446 -2.64134342938406e-15 6.49334387214924e-21 -1.54702269986433e-21 2.0662743315327e-33)
(-0.0929174814526195 -0.00229912718283247 2.54559241407008e-14 -3.06240774964023 0.103915133272269 -1.13147715316458e-13 1.7609291064989e-15 -5.96879607088504e-17 6.65173333729525e-29)
(-0.0683534863363757 -0.000660055487304606 -2.64496353363744e-14 -4.46726042299275 0.0719355517665402 -9.13063990438285e-14 2.58755629068429e-15 -4.15413114829592e-17 5.14609314417598e-29)
(-0.0579153189044426 0.000122470990219695 -2.6705622565734e-14 -5.5743481546378 0.0649356476619806 2.08787564951134e-15 -2.32890640698074e-20 9.46668631494715e-23 -1.17429303674127e-40)
(-0.0513661387249973 8.06154245180339e-05 2.07133256252106e-21 -6.57671782298276 0.0571494288980762 3.60763842801127e-18 2.32890640698072e-20 -9.46668631494707e-23 1.17429303674126e-40)
(-0.0439936773107096 7.03993348921057e-05 -3.51842837249914e-19 -7.41105147549921 0.0506128184875991 -3.57671874659113e-18 -3.07293457519375e-20 1.06449523759659e-22 -2.74077348788599e-38)
(-0.0381810971947303 4.98048681614165e-05 3.50021757626968e-19 -8.133350928744 0.0446164941624457 -3.09657474358743e-20 -2.97901285746912e-21 3.8859371133497e-24 2.73098311200076e-38)
(-0.033060226453722 4.32357730152716e-05 6.99460298584419e-19 -8.7479750207518 0.0398259559059278 -5.4226692656413e-20 -2.57946593766487e-21 3.37339503519787e-24 5.45741577866381e-38)
(-0.0289181821896046 3.34692445547139e-05 1.5836564752779e-21 -9.28122460213172 0.0357407539926959 2.5358311596442e-18 7.48319393234961e-20 -2.3002909066991e-22 -1.09076070063192e-37)
(-0.0253525278073484 2.66341132501724e-05 -1.04825047985014e-18 -9.74275497749641 0.0323483850584423 4.68813749345745e-18 1.97808632691305e-21 -2.07807977373954e-24 8.17878973303243e-38)
(-0.0222964297222381 1.82385906457948e-05 -8.96963626867238e-22 -10.1447787505729 0.0293689736869621 -8.19694678258455e-18 -4.05222011030704e-20 1.18398314534803e-22 -2.71880812942705e-38)
(-0.0195585750651339 1.01983633679151e-05 7.00879447582448e-19 -10.4934164754922 0.0267146744431029 4.54195681248683e-18 0 0 0)
(-0.0170628381664495 1.43311125581848e-06 1.23621922434505e-21 -10.7942587696295 0.0242492463967037 3.61102067878364e-18 4.51191620236636e-20 -1.20728873766312e-22 -2.75232729133543e-38)
(-0.0147215421142404 -7.36241491208257e-06 -1.05675237407612e-18 -11.0505144855323 0.0219137742120492 7.09373385941256e-20 1.14862239333987e-21 5.74439455553232e-25 8.24512426523025e-38)
(-0.0124914231290546 -1.63787030694082e-05 -2.63085073421231e-14 -11.2647845266822 0.0196476838043495 1.36635407665116e-15 -9.35101901206021e-20 2.39030949160945e-22 -2.05278480221695e-33)
(-0.0103358391750102 -2.52974454278689e-05 -2.66582768641118e-14 -11.4387395889213 0.0174231723666976 7.60076210923089e-14 -6.57948184965246e-15 1.00034828391099e-17 4.46395677466896e-29)
(-0.00823729078890259 -3.40768223142374e-05 2.63088614541737e-14 -11.5737513513551 0.0152184769253976 6.69394520226431e-14 -6.69301528224511e-15 8.81860807612567e-18 3.78680212253273e-29)
(-0.0061844425476636 -4.25636202674784e-05 2.66593403607155e-14 -11.670892284304 0.0130263271484214 -1.27227195755805e-15 4.86915414562568e-20 -1.14243942193447e-22 2.07999239617496e-33)
(-0.00417368852473668 -5.06521350588534e-05 -7.13542520123452e-19 -11.7311757710568 0.0108430476955264 3.7121900244836e-18 4.94997163877146e-20 -1.06970947069705e-22 -5.53203678304227e-42)
(-0.00220408657174614 -5.82162902161549e-05 -1.77557009778108e-19 -11.7555750642501 0.00867114842991735 -2.99099682720361e-13 -4.94997163882666e-20 1.06970947070899e-22 5.53203678310397e-42)
(-0.000276154026996619 -6.52610647733348e-05 2.69844899454196e-14 -11.7450606495508 0.00651065090199054 -3.03940667524902e-13 2.48466163961483e-20 -4.86684219686949e-23 -1.05270172510064e-33)
(0.00160298299986706 -7.15831829230752e-05 2.73121208300396e-14 -11.7005231863879 0.00436859476381907 -7.56079303017581e-14 6.73440951344195e-15 -2.4915784000131e-18 4.42200008024768e-29)
(0.00342176729865639 -7.70175765762872e-05 -2.69839492841463e-14 -11.6231615149988 0.00226195610094938 -6.93653586504722e-14 6.71683941716306e-15 -1.32668808823302e-18 3.94631973474712e-29)
(0.00517134686784314 -8.16041682841553e-05 -2.7312301538301e-14 -11.5143066611644 0.000203106667704622 9.50182834439134e-16 2.4650592750616e-20 -4.28712657098234e-23 -1.0655042285188e-33)
(0.00684295847036314 -8.53493406472848e-05 -1.8246691039992e-19 -11.3754272699964 -0.00179640474967201 5.95426023205276e-21 0 0 0)
(0.00842862601565752 -8.82499261383263e-05 -2.7044144410469e-30 -11.2081168015401 -0.00372560980367908 7.64837252528428e-32 0 0 0)
(0.00992117776268834 -9.03157376160029e-05 2.71958941760385e-30 -11.0140811628946 -0.00557436168894212 7.32714624967962e-30 -6.18149371527012e-31 -3.13133506227036e-34 4.15600219635769e-61)
(0.0113144535143771 -9.15705536889485e-05 2.70441444104717e-30 -10.795122289747 -0.00733354013437046 -7.58381458677608e-30 6.05859399712066e-31 4.11858727084695e-34 4.22061223962775e-61)
(0.0126034374820264 -9.2051134989675e-05 -2.7195894176039e-30 -10.5531198346881 -0.00899525727705117 6.50801375062922e-32 0 0 0)
(0.0137843420209819 -9.18049989570609e-05 -9.52958890237648e-20 -10.2900111434824 -0.0105529607816718 2.48449473468116e-18 0 0 0)
(0.0148546330918454 -9.08885740166469e-05 9.54113703514254e-20 -10.007770947844 -0.0120015055634253 -4.72562056851134e-18 -1.07078556158914e-20 7.55072587138207e-24 2.25255679283998e-42)
(0.015813014086416 -8.93648302437693e-05 -1.12011520139535e-21 -9.70839114274889 -0.013337158252458 2.23773853226759e-18 1.07078556158524e-20 -7.5507258713546e-24 -2.25255679283178e-42)
(0.0166593718148557 -8.73014093133858e-05 1.13630981245849e-21 -9.39386153695238 -0.0145575673767447 -9.90265225067245e-19 -1.00744554373804e-20 4.10470782978523e-24 2.56844579365803e-42)
(0.0173946967177687 -8.47685043853424e-05 -2.90845067289988e-14 -9.06615180020619 -0.0156617013405442 3.17353476054303e-16 1.0074455437379e-20 -4.10470782978468e-24 -2.56844579365768e-42)
(0.0180209773172416 -8.18370642650151e-05 -1.47419110664445e-15 -8.72719513017695 -0.0166497497693298 8.95783737932003e-14 -5.03067756738362e-15 -9.60428996770005e-18 5.18507892115493e-29)
(0.0185410832997304 -7.85772558738508e-05 5.71138314441319e-14 -8.37887382493079 -0.0175230152436956 2.97708025271261e-15 -2.40227934824725e-16 -4.93882284543072e-19 3.79522523807551e-32)
(0.0189586391072426 -7.50570560465461e-05 1.47406984991204e-15 -8.0230068653449 -0.0182837845593782 -8.8295231912961e-14 4.40253053465498e-15 1.00308618290295e-17 4.83724236563205e-29)
(0.0192778923428959 -7.13411260450331e-05 -2.80292282990779e-14 -7.66133963743455 -0.0189351956865278 1.21699473405661e-16 -2.16304539876354e-21 -5.35457582347188e-25 1.36683077514282e-34)
(0.0195035837353154 -6.74899676453091e-05 2.47091004663993e-20 -7.29553576441522 -0.0194810974898464 -5.3753824558316e-23 0 0 0)
(0.0196408194137548 -6.35592017381014e-05 -2.5227130670161e-20 -6.92717098998818 -0.0199259156140459 -5.48807820016588e-23 0 0 0)
(0.0196949519848731 -5.959929130715e-05 2.52685774678691e-20 -6.55772905446827 -0.020274514214441 -2.59042182449987e-19 -1.78211035791684e-21 -1.81303733287683e-24 2.02113351285488e-43)
(0.0196714673534535 -5.56550814328844e-05 2.52271306701395e-20 -6.18859933358781 -0.0205320790898228 2.5968765865456e-19 1.78211035828486e-21 1.81303733401478e-24 -2.02113336741927e-43)
(0.0195758845965557 -5.17660647554571e-05 -2.52685774678898e-20 -5.82107626012395 -0.0207039852138173 -1.64912844316863e-22 0 0 0)
(0.0194136653591835 -4.79661358989805e-05 0 -5.45636009921547 -0.0207957137993336 0 0 0 0)
(0.0191901324177875 -4.42840564168539e-05 0 -5.09555921348651 -0.0208127234897887 1.43791476897388e-18 0 0 0)
(0.0189103942988235 -4.0743355607303e-05 0 -4.73969340305422 -0.0207603989132651 -1.44734993512912e-18 0 0 0)
(0.0185792970981408 -3.7363515083601e-05 0 -4.38969851303721 -0.0206439301812645 0 0 0 0)
(0.0182013472512638 -3.4158700206397e-05 0 -4.04643136792473 -0.0204683106007652 -2.96090743003548e-18 0 0 0)
(0.0177807094013554 -3.11412367934181e-05 0 -3.71067675472475 -0.0202381692051636 2.9799435628937e-18 0 0 0)
(0.0173210856613509 -2.83165625002724e-05 0 -3.38315263117381 -0.0199579003115548 3.01675031250867e-18 0 0 0)
(0.0168258113631067 -2.56930173145686e-05 0 -3.06452079266115 -0.0196312922132674 -3.03561825462649e-18 0 0 0)
(0.0162976035391258 -2.32670646799698e-05 0 -2.75538942936111 -0.0192620392955572 -3.07140238811196e-18 0 0 0)
(0.0157388446136349 -2.1047884930621e-05 0 -2.4563316477105 -0.0188527496807367 3.08988721395715e-18 0 0 0)
(0.0151510470558238 -1.90172959469901e-05 -3.22594134277197e-14 -2.1678793545373 -0.0184064058548209 -1.05268918107412e-15 0 0 0)
(0.0145356226312223 -1.71842306834085e-05 -6.45448219533622e-14 -1.89055910729587 -0.017923706615524 1.3517403274142e-13 -1.09296408859126e-15 -1.03539677090173e-17 7.73617962290239e-29)
(0.0138923869529576 -1.54928713164178e-05 -7.81946325382058e-18 -1.62486147689197 -0.0174068189262197 2.85327776772506e-13 -1.87457354919034e-15 -2.00789523088547e-17 3.29273535100343e-28)
(0.0132218919864681 -1.39826871597663e-05 6.4544821953025e-14 -1.37132582738595 -0.0168543864496685 1.50698161764226e-13 -7.88917636088379e-16 -9.70169811824877e-18 8.76493177435278e-29)
(0.0125214376343236 -1.26393627215223e-05 3.22676695179996e-14 -1.13043413792176 -0.0162690927613001 1.26353631077938e-15 0 0 0)
(0.0117909387168409 -1.16147309508175e-05 -4.37071246562584e-19 -0.902827477702796 -0.0156449881740015 1.09472290742322e-17 5.21449992512805e-21 7.04649854567526e-23 3.46333944059874e-41)
(0.0110234466836237 -1.07064711775133e-05 -8.76028476214586e-19 -0.689004534565115 -0.0149903086371336 2.01191768980289e-18 -5.21449992507148e-21 -7.04649854559881e-23 -3.46333944056116e-41)
(0.0102197048370364 -1.00466207139266e-05 8.76861017422777e-19 -0.489857930887124 -0.0142894416479582 -1.10433797640106e-17 -3.55704044486542e-21 -7.20842088982292e-23 3.0324165657932e-41)
(0.00936413187453241 -9.25909932076016e-06 4.39401115287763e-19 -0.305886209991011 -0.0135479883431664 4.53888227524999e-18 3.5570404448333e-21 7.20842088975783e-23 -3.03241656576582e-41)
(0.00846224236540614 -8.94734287938875e-06 -4.3978977085454e-19 -0.13852933013922 -0.012733021915865 -2.20052037406629e-20 0 0 0)
(0.00748074410141428 -8.18924332962021e-06 4.44391266109886e-19 0.0118523266986461 -0.0118730629525136 2.41689597075152e-20 0 0 0)
(0.00644053933868554 -8.48289200425858e-06 -8.90159483639215e-19 0.142669435438273 -0.0108932649482823 4.51477313306066e-18 1.07998537381315e-21 7.48055484755002e-23 3.47802800082908e-38)
(0.00526878870593147 -7.48786003545834e-06 1.33533083342697e-21 0.254169620013438 -0.00987460511176844 -9.14334479665175e-18 -1.74888278914746e-21 -1.50195324041342e-22 -6.94563731803139e-38)
(0.00403277570581222 -8.92883268507959e-06 4.42542299237655e-19 0.341292919906215 -0.00864236016326708 4.60386007494243e-18 6.68897415335592e-22 7.53897755659836e-23 3.46760931720882e-38)
(0.00256802630822134 -6.86837069609177e-06 1.99923094112362e-21 0.406344576916147 -0.00741783104905967 -4.59716572784203e-18 -1.53881464660254e-22 -7.66223245341478e-23 8.476716710707e-42)
(0.00106636397272822 -1.05031340258709e-05 -1.8470334059136e-21 0.43875298308501 -0.00578295818076676 4.59828326649815e-18 1.53881464662988e-22 7.66223245355093e-23 -8.47671671085763e-42)
(-0.000860432753996588 -5.24361252926407e-06 4.51847971053283e-19 0.446925349805747 -0.0043176219003859 -4.58578924188075e-18 -1.37814044042559e-22 -7.78509366989668e-23 3.51190072571935e-38)
(-0.00269078310382647 -1.52137251362495e-05 -4.5148660779439e-19 0.407521949538112 -0.00199734163827198 9.20869293603791e-18 4.85571700288735e-22 1.56888897504637e-22 -3.5011567177499e-38)
(-0.00535074092271203 -2.73660129608244e-06 -4.48977541021708e-19 0.345361214619451 -0.000359134251985488 -9.28552208222949e-18 -1.11299744833344e-21 -1.58289440106504e-22 -3.52455619807311e-38)
(-0.007445243737175 -2.68591623927423e-05 9.00950825603474e-19 0.206133653773005 0.00310818367771745 4.69354443132201e-18 7.65239792096813e-22 7.92514793020363e-23 3.51381219013977e-38)
(-0.0111288961905896 2.63831550027174e-06 -9.02937132289163e-19 0.060176573508681 0.00440653775280735 -6.77705801632937e-20 0 0 0)
(-0.0127411515174742 -5.70372653642273e-05 -9.00407035222581e-22 -0.218974564207846 0.00957729336077188 -4.64685734492804e-18 -3.20856024919916e-21 -8.55915003846143e-23 -3.53633526550726e-38)
(-0.0176522100948001 -0.000275287372004497 9.04215626903882e-19 -0.440504056166949 0.00883010220780897 1.37264144320434e-17 -1.37728260052238e-21 -2.14788123169354e-23 7.05498316282787e-38)
(-0.0109010010614397 -0.00335429942186011 4.32342221413005e-19 -0.912875462147848 0.010037530839682 -1.17416586007668e-16 1.17048551969594e-19 -1.16558741175434e-21 1.44513249811844e-35)
(0.0921362551942141 0.00197693027570226 -1.14154375368776e-16 -1.22469762597568 -0.0966210719437489 -1.90527114832085e-17 -1.37978018209507e-20 -1.64455544613842e-21 -1.80609581372391e-35)
(0.193093587452949 0.0247242164917941 1.89535561932797e-16 -1.18987761371527 -0.188395774282699 -1.16970124297671e-15 1.38890847818007e-20 1.65543543212122e-21 1.81804451219015e-35)
(0.270016252723698 0.0591524702818251 6.92818902212835e-16 -1.10189815397334 -0.263108862055621 -3.40977378092782e-15 0 0 0)
(0.27880025015136 0.083455296670868 -3.23487431702453e-16 -0.841709264024254 -0.265796685886516 1.06002107208312e-15 -3.48879028043446e-18 -1.10005864062119e-18 4.3856722264489e-33)
(0.221793901756867 0.0839640223391497 -1.25895602564004e-15 -0.520140766727654 -0.205058588952062 3.30377328157368e-15 0 0 0)
(0.0717144257095855 0.0339976998720636 2.26280084004901e-15 -0.0975506865948965 -0.0514273820685421 -5.46101028170831e-15 -1.56785021251755e-21 -3.8059539275177e-22 -3.61992339859792e-35)
(-0.170642149731922 -0.0840759793475251 9.32581421035191e-16 0.389335684986683 0.193376122019332 -2.16734484757918e-15 1.62671748225107e-21 3.94885413230497e-22 3.755838810299e-35)
(-0.540536764273732 -0.305819932590694 -7.39345973038433e-18 0.98830968957743 0.562802849989915 1.96554389297627e-15 9.02242056606612e-18 5.13578817749588e-18 1.7066752764613e-32)
(-1.05380058211682 -0.65730937751913 -4.85235374963676e-15 1.71142274778884 1.07258053585671 8.22022874212914e-15 -1.60383934200178e-17 -1.00487927512925e-17 -7.68566513465823e-32)
(-1.69104995536055 -1.13257779856814 -4.64086889133913e-16 2.53494392290761 1.7033669042222 -4.82189666956167e-17 0 0 0)
(-2.44256044526453 -1.72173407791339 -2.86681631131539e-15 3.46128373107299 2.44503483242688 3.95024707502697e-15 0 0 0)
(-3.29011697774841 -2.40325243382022 -4.07690379593028e-16 4.48613222746854 3.28082147105912 -4.54332301318798e-17 0 0 0)
(-4.22031360528534 -3.15234675970818 -3.77307632563639e-16 5.61557150206938 4.19653253873131 -2.3081064400824e-17 0 0 0)
(-5.17265472762907 -3.90845813881732 -1.17312989115366e-15 6.796224211648 5.13618833035607 1.54868821235646e-15 -3.67354729838442e-20 -2.75633076033127e-20 3.65319914894572e-35)
(-6.09032400611158 -4.63642470035304 4.51335655190967e-15 7.93675136576692 6.04396359468255 -5.32261043502603e-15 3.79091404824857e-20 2.84439321240121e-20 -3.76991579253073e-35)
(-7.01984442743213 -5.39557193805288 2.38126298041617e-18 9.05480215558942 6.96333917972202 -2.56528019113933e-18 0 0 0)
(-8.0462834058919 -6.26080202535506 -2.0317236751791e-18 10.2442936139202 7.97667456103854 2.57674810888604e-18 0 0 0)
(-9.20118379808333 -7.26949778585799 4.17756563979102e-15 11.5308394131768 9.11752543733959 -5.21656401591933e-15 0 0 0)
(-10.6077575879165 -8.52712489770677 4.20194507065916e-15 13.0502123281496 10.4997351831056 -5.15033236715757e-15 0 0 0)
(-12.354033401205 -10.1273518893352 -4.51397656058164e-15 14.8926107065199 12.2172668837125 5.05577038704593e-15 1.53297832218827e-16 1.2575503391397e-16 5.21441499385663e-32)
(-14.8515302913301 -12.388080009466 3.32073727993189e-15 17.5624059968886 14.6482997137378 -3.54629857500211e-15 0 0 0)
(-18.2555278799048 -15.2387314652141 -2.69504630830522e-15 21.5437511078302 17.9610302488516 3.50094361593465e-15 0 0 0)
(-22.4132850101879 -18.2867875557132 -2.86469797806343e-16 27.0395474050419 22.0051887304886 -5.80692770674086e-18 0 0 0)
(-27.2551421330505 -21.1598012723891 3.6585061567424e-15 34.5492922225354 26.7114489927388 -4.59359634620904e-15 -3.49280014309533e-16 -2.70043078804088e-16 4.64246885371809e-32)
(-32.665170745361 -23.3309602955828 2.04361051700552e-16 45.0295394162188 31.9544586362791 -1.12746489899334e-18 -8.64776462966479e-21 -5.45829795505013e-21 -8.96208958337239e-37)
(-37.5943611075008 -23.5176620791995 -2.23949777155401e-15 59.307678314583 36.7227814322977 3.21427650195072e-15 8.61733453844719e-21 5.43909108347372e-21 8.93055343325716e-37)
(-38.9223987764249 -19.6997628149197 3.62304420181035e-16 76.3193007554872 37.9943677066912 -1.09789900005957e-15 3.39242252976206e-16 1.68865117656837e-16 -4.89304432779294e-33)
(-30.290230729251 -10.7862019547519 2.101683193006e-16 85.8837503539136 29.6828788272238 -3.43238088194214e-18 2.22207793124946e-20 5.98125539011155e-21 3.47881614054523e-37)
(-15.341618722674 -3.33957206449626 1.90512071136997e-17 74.864111519914 15.1464486167485 -1.8809156454873e-16 -1.50797513566453e-16 -3.0503792036453e-17 3.79206719605469e-34)
(-5.11272353895411 -0.604607390345026 -4.46896297185328e-18 53.2569611955468 5.03081615829169 -3.73537093209646e-16 4.66897533116833e-21 2.91921077830451e-22 -8.93174944292081e-38)
(-0.763782710849086 -0.0636773045701746 1.83111257118399e-17 30.9795819716021 0.812282322776252 -1.91515305801556e-19 -4.663033889552e-21 -2.91549597598176e-22 8.920383465574e-38)
(-0.100828772793052 -0.00555863129462214 -4.58957987523715e-21 20.4365245837469 0.0551766640894255 1.99689561135646e-23 0 0 0)
(0.0575617952926876 -0.0136198175432633 0 25.4325146454818 -0.00894640548279522 0 0 0 0)
(0.197079634866166 -0.0470970259951272 1.48219627749149e-21 25.7748236944969 -0.248568409105074 1.39574295388946e-19 0 0 0)
(1.12562254953885 -0.0989235980175899 -6.52934068277371e-17 21.9260608543216 -1.07276192890274 -8.96637448143741e-19 0 0 0)
(0.946225186079191 -0.0479328161214509 -5.89970008907165e-18 9.67539476405266 -0.911002694039546 -3.84795622282071e-17 7.43927476068e-18 -9.66195175048844e-19 -2.47649257098697e-33)
(-1.24225182649817 0.630810905398202 6.54901519095515e-16 -2.1756170582629 1.31448339861476 1.68089966178443e-15 0 0 0)
(-2.97350177387316 1.60153923676191 9.37330676361927e-16 -5.8311432502215 3.02991569557742 2.40780841146057e-15 0 0 0)
(-2.75716542483505 1.74841264208148 2.83736897238055e-15 -4.54076827637097 2.79051531315229 4.4264972178752e-15 -4.57397289940905e-17 2.85390213363532e-17 -4.20910764597263e-32)
(-2.37011831895391 1.72295151752357 3.03130413899271e-16 -3.3607924290556 2.3961498682829 1.76307869849868e-18 0 0 0)
(-2.09700484837249 1.65483866673271 1.57746988168148e-15 -2.71064387735962 2.11637307064855 2.8513634555263e-15 -2.73842759022058e-17 2.13817612569044e-17 2.87336204673873e-32)
(-1.79077386456762 1.47754109465043 9.85903128472006e-16 -2.20219522884965 1.80665316899252 1.1976935204029e-15 -6.96665620470706e-17 5.73373756175095e-17 -1.00888725245489e-31)
(-1.52056119707596 1.27623013840264 2.98497421373226e-16 -1.82769835838428 1.53159238504536 -2.40628180504468e-18 2.76597602265849e-21 -2.36975107920902e-21 7.57121910579782e-37)
(-1.27028179687681 1.05922830153326 -8.68006099364932e-16 -1.52871947244649 1.27699947921088 -1.46331688988661e-15 -1.59402419088744e-17 1.34217246888413e-17 1.4868162890249e-32)
(-1.08945761414051 0.891955877653895 7.68613301862416e-17 -1.33010152481157 1.09251700240181 1.34944228604322e-16 2.71718264724538e-17 -2.24070558905191e-17 -4.42376850047147e-32)
(-0.984498794110638 0.79437502688245 1.41239297245885e-15 -1.21733752556368 0.985081576253388 2.73978717927163e-15 -2.44615503397389e-17 1.98598731766711e-17 -4.42030968519829e-32)
(-0.942353590855855 0.752770849116338 -5.90995067279686e-15 -1.17501887651501 0.94069640034217 -7.33852019801333e-15 -1.14290999085333e-17 9.18968171415821e-18 -1.40894627333826e-32)
(-0.959133132050504 0.762399804021738 4.14453820376305e-15 -1.20093903151601 0.956198927390256 4.17874042321883e-15 -2.35979983461989e-17 1.87894312274935e-17 -2.4450084384099e-34)
(-1.03159213909703 0.817652350298905 -2.86311735349869e-15 -1.29454731834295 1.02749617878474 -4.2538586361382e-15 2.53440170904906e-17 -2.00693849515263e-17 -4.11902223318232e-34)
(-1.14962645136584 0.909475459228477 6.88865799810152e-16 -1.44614103666213 1.14555611267887 1.48405403269671e-15 2.24156225424481e-20 -1.75388115421849e-20 -4.15593459333087e-38)
(-1.29567101953839 1.02102539205237 2.22735727911294e-15 -1.63675123411578 1.29236201474595 2.90186216454283e-15 3.68997677221275e-21 -2.73619512474957e-21 8.22730193365829e-38)
(-1.43570689901401 1.11802931293361 -1.60116796055353e-18 -1.8337886321255 1.43362435489231 -1.46838032532471e-18 -2.46239518632841e-20 1.91203930998092e-20 -4.06970870154006e-38)
(-1.54875477328462 1.17610735702865 -2.71557299835441e-15 -2.02496670279352 1.54825950939106 -4.35157321551473e-15 -3.10139047386552e-20 2.30204297703518e-20 4.27827321280243e-35)
(-1.62110776098821 1.18281091894947 2.24083525799482e-15 -2.20010184014033 1.62214611148116 3.09537019055548e-15 2.15476286602584e-17 -1.56839197363672e-17 -1.33246714551679e-32)
(-1.6390834482845 1.12913906405087 -3.46065402052036e-15 -2.34658952633024 1.64134248528565 -4.33313086748353e-15 -3.18750692717724e-20 2.26614567015451e-20 4.05463366685598e-35)
(-1.59454989278857 1.01520084117576 5.07265177842949e-16 -2.45461365900553 1.59720957614818 -5.38159243944745e-17 0 0 0)
(-1.49079719698208 0.854692890589619 -2.27609677871521e-15 -2.52389107326646 1.4922692142405 -4.38498203587857e-15 4.61744837855794e-17 -2.72201893358902e-17 -1.61653559949018e-33)
(-1.34602408704942 0.675794963581352 -2.49625934405296e-15 -2.5712374509541 1.3466264036907 -3.81129139776865e-15 2.27160116687647e-17 -1.18828915299715e-17 -3.93030807739064e-34)
(-1.17757574277104 0.503149188848033 2.15579940137046e-13 -2.60057306993911 1.17678741898431 4.07512598520605e-13 6.40028936980079e-20 -2.67656526549202e-20 -4.74191236356374e-33)
(-0.989055753230349 0.34548538438458 6.48555544976754e-14 -2.60402831988581 0.98722674677859 1.69111487607454e-13 2.42401607703244e-15 -9.23345326984349e-16 -2.14449167097533e-28)
(-0.793108374405228 0.213177892916038 -5.83214407933496e-14 -2.59237976815017 0.790365333401545 2.12966305191103e-14 -5.01928355833114e-17 1.53478589787744e-17 4.51601804874673e-31)
(-0.604178580257284 0.112122965595797 7.01178463062163e-14 -2.59467364727576 0.600671149929572 2.9713241595737e-13 -2.44748588657435e-15 5.70966847602641e-16 -1.21338792519324e-29)
(-0.425897695501204 0.0421117459967121 3.30959849921152e-14 -2.66327026714787 0.426611015760876 -4.15029064757146e-15 5.38255469968827e-20 -1.05586123008205e-20 5.07996106541335e-33)
(-0.302391737638982 0.00508834601829235 -3.83834298379996e-14 -2.91746874950273 0.291908380280461 3.62966109864657e-15 6.31120320001799e-20 -3.77698803859385e-21 5.81367102237724e-33)
(-0.204543650979634 -0.00678336015574671 -4.00234710329377e-14 -3.72391611427908 0.210142257309433 -2.71838836574256e-13 -1.7429381077381e-15 5.87282812084054e-17 -6.5664138909351e-29)
(-0.181490536068387 -0.00321129855254075 3.84530373081023e-14 -4.8233307121164 0.174429036288689 -2.80277447213049e-13 -2.47411177767174e-15 3.9462403625042e-17 -4.87791883762082e-29)
(-0.151972419483639 -0.00160582577575992 3.69461449964587e-14 -5.69945195123068 0.149027219075073 4.18160959601616e-13 0 0 0)
(-0.131363508883408 -0.00152248272216024 1.21820219555135e-27 -6.43791304478289 0.125650949260099 4.18942027174521e-13 0 0 0)
(-0.110849065372499 -0.00133194437293745 6.13104098484028e-33 -7.03660488915237 0.10549173229298 7.67302340681632e-18 0 0 0)
(-0.0947990195884135 -0.00113524744859251 3.41008331860847e-30 -7.53532200659193 0.0885191261842783 -8.23105369497154e-18 0 0 0)