/*--------------------------------*- C++ -*----------------------------------*\
| =========                 |                                                 |
| \\      /  F ield         | OpenFOAM: The Open Source CFD Toolbox           |
|  \\    /   O peration     | Version:  3.0.1                                 |
|   \\  /    A nd           | Web:      www.OpenFOAM.org                      |
|    \\/     M anipulation  |                                                 |
\*---------------------------------------------------------------------------*/
FoamFile
{
    version     2.0;
    format      ascii;
    class       volTensorField;
    location    "30000";
    object      grad(Usqr);
}
// * * * * * * * * * * * * * * * * * * * * * * * * * * * * * * * * * * * * * //

dimensions      [0 0 -1 0 0 0 0];

internalField   nonuniform List<tensor> 
21000
(
(0.00426607360597075 1.69394257208815e-06 0 1.87635642725011 6.89175050927407e-06 0 0 0 0)
(0.0237788338492257 4.44991316363325e-05 1.50986930899982e-41 2.30491632426357 0.000326230548468653 1.31114917863392e-43 0 0 0)
(0.11868489999852 0.000551758506824152 5.21524810197246e-41 1.53791681618415 0.00659134944170373 3.09011902922262e-40 -5.85000276000225e-23 -4.27909215670457e-25 -4.02129777063029e-61)
(0.0133047082158838 0.000333066171342277 3.2768714358898e-33 0.0908100534703822 0.00116493795855205 1.12093289557625e-32 -1.82974691643137e-19 -2.3426890042064e-21 -2.25462558275817e-50)
(0.0529343269431804 0.00735857828366181 7.18347045564709e-33 0.146510077972228 0.0199033046552288 2.05830745124019e-32 0 0 0)
(0.118247610079302 0.0305374713890109 -1.1170491447021e-33 0.231750452867097 0.0591587598085327 -1.73417094766412e-35 0 0 0)
(0.0722562255656843 0.0285573228895039 1.0267432049635e-31 0.114678965267742 0.0448076939530988 1.60173979563817e-31 -1.07711896964886e-18 -4.20820856543147e-19 -1.50412917144556e-48)
(0.0459927015836288 0.0240897401536012 4.96741810168141e-33 0.0633606727378482 0.0329923174100449 -1.17259393791961e-35 -5.7765721569016e-24 -2.47457013130374e-24 -1.70548327192101e-61)
(0.03378582825798 0.020946834548746 5.95163096109219e-32 0.0427050170245688 0.0263940350441149 6.7760933643636e-32 4.31637016504307e-19 2.66777149848136e-19 6.85792592625762e-49)
(0.0238411958738932 0.0163099258339967 5.72295882935887e-31 0.0287051696726246 0.0195986819322503 6.90220289097419e-31 -2.95795673746581e-19 -2.019606263622e-19 -7.11199646696692e-48)
(0.01715567149636 0.012245428628764 1.99297080995656e-32 0.020210786896753 0.0144137063250417 -6.25049919788641e-34 2.90528859190076e-24 2.17065692370634e-24 6.8224024657002e-52)
(0.0120663720039977 0.00857221759561461 3.96018916510842e-31 0.0142575427184628 0.0101291633550483 4.63487985561681e-31 -1.48021160135266e-19 -1.05160143095566e-19 -4.81441150549643e-48)
(0.00903330247248998 0.00619182779156395 1.31538513510979e-31 0.0108807512860127 0.00746250789792639 1.78544632534741e-31 -6.39005081900367e-24 -4.43764174798374e-24 -7.10823457373354e-52)
(0.0074975173742401 0.00496784420519398 2.2915586585027e-31 0.00920386789273468 0.00610195764794469 2.70215874866385e-31 8.94092602091087e-24 5.91044198945035e-24 8.48313184873723e-52)
(0.00695699935940345 0.00448524503331928 2.21446089291871e-31 0.00867576421662468 0.00559595670072335 2.85266320243248e-31 -8.78897654933458e-20 -5.66889251286652e-20 -2.88694133025849e-48)
(0.00732885199484211 0.00463332199943932 1.54574945854541e-31 0.00925194285806209 0.005851474625397 2.06227866526393e-31 0 0 0)
(0.00871989557347617 0.00542881701408653 1.75971231620912e-31 0.0111102949537274 0.00691984525866771 2.12997062459354e-31 0 0 0)
(0.0113008034844872 0.00695524461137294 8.6186871063693e-32 0.0144970720769304 0.00892665516449191 9.72749660092433e-32 3.32651004261883e-23 2.03656715680349e-23 1.94125718559664e-51)
(0.0151758536489487 0.00923999810412421 6.86887402343784e-32 0.0195680141481594 0.01192275828191 1.01700004896875e-31 -7.71144404078569e-23 -4.65714254134398e-23 -2.85607721839762e-51)
(0.0198010736403172 0.0117999061756124 -9.85153950443037e-33 0.0257802399447971 0.0153827055944941 7.49219861905446e-34 4.34864561066665e-23 2.60034443994012e-23 9.44665891236299e-52)
(0.0246934851047756 0.0140647465796284 1.20282732563515e-32 0.032846096775321 0.018746547511141 -1.0039060610562e-33 7.32575159922812e-23 3.95654594267566e-23 1.0975067074064e-51)
(0.0292539377573416 0.0155029401531877 2.63493144546415e-31 0.0402867198759938 0.0214121442322348 3.64795769391979e-31 3.9257287030265e-19 2.086168722444e-19 3.55304917220985e-48)
(0.0326035230682307 0.0155850359134938 -1.16666058966278e-32 0.0472052266760038 0.0226551034897348 1.01026724466088e-33 1.8177896623548e-22 8.45604488246251e-23 1.04011154093691e-51)
(0.0338699962064078 0.0140667342943532 3.16520394852118e-38 0.0525218689748804 0.021931712756994 1.26293356154522e-37 -9.40653345072834e-23 -4.13807142235356e-23 -5.22341270901643e-57)
(0.032628786461342 0.0112385397130723 1.75929515768251e-31 0.0554555787424434 0.019245495837033 2.92766827342272e-31 0 0 0)
(0.029681383343929 0.00804912417776213 6.41603561935633e-32 0.0567726338782854 0.0155554182709991 1.14296294344537e-31 0 0 0)
(0.0257265398014267 0.00523190134449985 1.43187712751595e-32 0.0566910863649492 0.0116895814571607 3.96838213379107e-32 -1.83075775945851e-22 -3.32812806548527e-23 -6.64714443825621e-52)
(0.0208466705433007 0.00298844842445126 4.31112597127231e-28 0.0545127185096959 0.00796991862708748 1.12288965012917e-27 1.77218693299744e-22 3.22165236690819e-23 6.43448454846833e-52)
(0.0157115995470088 0.00145325543234582 9.76154103934919e-32 0.0508245663203412 0.00484681644070897 3.13565982378982e-31 0 0 0)
(0.0110348691459697 0.000574381278538968 3.54301830180887e-28 0.0470256088632544 0.00258381520391504 1.49750948024614e-27 0 0 0)
(0.00722155324134878 0.000162909583962924 2.86211878920006e-34 0.0456742434470961 0.00115381873069502 -2.20752466571435e-35 1.0528825439898e-22 1.91817826628194e-24 4.47612166725689e-53)
(0.00405964945897868 2.0151470645967e-05 9.59350348974816e-29 0.0464249161435393 0.000366014107039878 -7.93037372742024e-30 -3.27144133157899e-23 -1.7188916249821e-24 7.48806020333372e-48)
(0.00217673107656105 -8.23086835507542e-07 1.32039241844051e-28 0.0843625900461964 0.000116112609708921 2.99624650707293e-27 -4.86154960138431e-17 -6.68583440453663e-20 -1.72363358368962e-42)
(0.00189703020030619 -1.66626220973463e-07 -9.60212077460056e-29 0.173986357554165 6.17540242033155e-05 2.87803556789885e-27 -1.00536682175958e-16 -3.56231495666587e-20 -1.66445234147476e-42)
(0.00213444244055148 1.89171033431762e-08 -9.78940274319319e-29 0.267532719189125 4.82958157772927e-05 7.66674715824401e-30 4.81255493188527e-22 7.88918533389999e-27 2.65428706230086e-57)
(0.0022697054933491 1.39359138117297e-08 -2.0000738350581e-40 0.368877309771846 3.60465278782786e-05 1.74040271967733e-37 -4.81255493188523e-22 -7.88918533389992e-27 -2.65428706230084e-57)
(0.00223674499851773 1.27377043916586e-08 -1.69368262760448e-38 0.465451314889439 2.6998827361944e-05 1.74680555189105e-37 8.32863355280046e-22 9.97034741207703e-27 1.3172158003822e-57)
(0.00215638918812424 9.50129325414091e-09 -1.68822432540777e-38 0.557846726283564 2.00508456187439e-05 1.21243822237021e-39 1.68248468197926e-22 7.41321670833937e-28 -1.31720729397373e-57)
(0.0020305169714835 8.4972301842203e-09 6.7043926910241e-38 0.642917543265048 1.52309986130208e-05 -4.52074169434003e-39 1.58427510202443e-22 6.62981418332858e-28 5.23098430781591e-57)
(0.00189957393444645 6.76749648504482e-09 4.57063708774447e-44 0.721446482297253 1.17022552051745e-05 9.85987413195726e-37 -2.46728957773102e-21 -2.32773229955526e-26 -1.04619891945792e-56)
(0.00176038761493968 5.48989365684914e-09 -5.02914002431883e-38 0.792922297246718 9.14922318436641e-06 2.96454641815294e-37 -1.37351142956639e-22 -4.2833928282577e-28 3.92389792206552e-57)
(0.00162134101831097 3.81729684086753e-09 -1.10430444802825e-43 0.857768007476472 7.20658253076893e-06 4.64830971043125e-37 1.44510138699552e-21 1.23310117770586e-26 1.30709845832232e-57)
(0.00147864405177959 2.15367210817814e-09 2.08071323465372e-40 0.915894007202074 5.70544683835792e-06 2.8968766983435e-37 0 0 0)
(0.0013329474317313 3.03816585129105e-10 2.09763720778939e-43 0.967390900016716 4.50511491266115e-06 1.74232505368596e-37 -1.79097313741825e-21 -1.28205908662494e-26 -1.32334060716124e-57)
(0.00118222882780638 -1.55764747302709e-09 5.13050367157316e-38 1.01215573215477 3.53358074605167e-06 -2.75125777263193e-39 -9.22413219438409e-23 1.21532700484482e-28 -4.00298512244407e-57)
(0.00102650127679023 -3.4386513160276e-09 9.50017780289662e-29 1.05012600910373 2.73829522783714e-06 -4.96015614150141e-30 3.84651987275372e-21 2.51298216190707e-26 7.41234640780616e-48)
(0.000865578828184708 -5.23871193178869e-09 9.75498224501627e-29 1.08119484499391 2.0907844462496e-06 2.61126023160864e-27 6.22866489466052e-16 1.2011321005947e-21 1.50327907387231e-42)
(0.000700348304879743 -6.91831205542974e-09 -9.50017780120496e-29 1.10529936982803 1.57157989827284e-06 2.62038372432854e-27 6.38273857608778e-16 9.10566994001946e-22 1.51414203194875e-42)
(0.000531942051062724 -8.41781194238449e-09 -9.75498225012365e-29 1.12240923186838 1.1690239351232e-06 4.66876070553918e-30 -2.08548411982662e-21 -1.14822330701329e-26 -7.61115308177258e-48)
(0.000361963943831266 -9.69437655148582e-09 2.78757595478175e-40 1.13256146068207 8.74181382807917e-07 1.8100770534633e-37 -2.15522956053599e-21 -1.00690614650107e-26 -2.7486332502529e-57)
(0.000192117732812424 -1.07081419443158e-08 -1.31354397244187e-38 1.1358575028764 6.80039577581237e-07 1.23323983998491e-27 2.15522956056003e-21 1.0069061465123e-26 2.74863325028356e-57)
(2.41181803991058e-05 -1.14520896937964e-08 9.99438913496752e-29 1.13246216927272 5.79893241836084e-07 1.26077693707072e-27 -1.08605049340687e-21 -4.17002421198991e-27 -3.89897304291045e-48)
(-0.000139855198418228 -1.18914787781271e-08 1.02389625554099e-28 1.1225812399302 5.67459118641618e-07 2.72905778029504e-27 -6.4687043085991e-16 -3.2489091078282e-22 -1.57185028950399e-42)
(-0.000297365983344092 -1.20110634419664e-08 -9.9943891362732e-29 1.10653488823129 6.3534813142182e-07 2.75330140725257e-27 -6.38793046984123e-16 -3.68127415864631e-22 -1.59014051501332e-42)
(-0.000446375166230979 -1.18403447419251e-08 -1.023896255586e-28 1.08471390643054 7.74625078598656e-07 3.56392360951879e-30 -1.06899378711932e-21 -3.23754733430289e-27 -3.99438509412754e-48)
(-0.000585040709462265 -1.14083043708666e-08 -4.56990944677307e-39 1.05757246274062 9.75308460737874e-07 1.49125285364699e-40 0 0 0)
(-0.000711799921922508 -1.07471579181336e-08 1.00388935768161e-60 1.02561725058101 1.22666632823543e-06 -2.83910619067137e-62 0 0 0)
(-0.00082538512019749 -9.89449202765136e-09 1.01518698842429e-60 0.989396242070646 1.51751983357024e-06 2.73476679809679e-59 5.5532103045895e-32 8.51604139274895e-38 1.53643480559723e-90)
(-0.000924847787401824 -8.89141218338694e-09 -1.00388935768602e-60 0.949486674925681 1.83657052055415e-06 2.77802661739435e-59 -5.32919810805245e-32 -1.03073019991191e-37 -1.55775722289151e-90)
(-0.00100956776054023 -7.7804428820826e-09 -1.0151869884286e-60 0.906482949724559 2.17273853016751e-06 2.42935600403026e-62 0 0 0)
(-0.00107925003746347 -6.60345765613777e-09 1.24648681664521e-39 0.860984752620234 2.51547291378867e-06 8.49425240735315e-38 0 0 0)
(-0.00113390936817798 -5.39996428218762e-09 1.2495096788563e-39 0.813585891597836 2.85502566996556e-06 2.06127677682822e-37 4.0349244538602e-22 2.03323352830447e-28 4.86864325452775e-59)
(-0.00117384544235302 -4.20569369914352e-09 2.94748161585113e-41 0.764864103943083 3.18266842106897e-06 3.46475532207296e-38 -4.03492445384552e-22 -2.03323352829707e-28 -4.86864325451004e-59)
(-0.00119961056982507 -3.05161376148333e-09 2.99395113383346e-41 0.715372118223674 3.4908505163325e-06 1.31099682894377e-38 3.57196264182991e-22 6.17636948822463e-29 4.98453571082318e-59)
(-0.00121197253251835 -1.96330480597008e-09 1.16108935176369e-28 0.665630089248818 3.77329644448356e-06 -1.26295558032163e-30 -3.57196264182943e-22 -6.1763694882238e-29 -4.98453571082252e-59)
(-0.0012118742793133 -9.6070336671064e-10 2.98256585709707e-31 0.61611951354525 4.02504117209711e-06 3.27178577153733e-27 3.55267759104047e-16 2.32161831220109e-21 1.88642338640586e-42)
(-0.00120039306811609 -5.81614551036653e-11 -8.27346420006724e-30 0.56727862871878 4.24241619250087e-06 8.11729674880152e-30 1.6122175298273e-17 1.19592407301352e-22 1.1906467964176e-45)
(-0.00117870048550174 7.35246628823852e-10 -2.98256586924182e-31 0.51949924664438 4.42298868853296e-06 3.05903755113601e-27 -2.85032791454988e-16 -2.42648165445255e-21 -1.67846460673185e-42)
(-0.00114802470859288 1.41522213922902e-09 -1.07835470977595e-28 0.473124938619485 4.56546663113196e-06 4.69184946894261e-31 6.58777559319719e-23 4.48391089402986e-30 5.25854542784852e-49)
(-0.00110961624502834 1.98161557998537e-09 -8.38017770405641e-41 0.42845044262807 4.66957673320402e-06 1.82307973001254e-43 0 0 0)
(-0.00106471771834836 2.43772527294776e-09 8.73524461446282e-41 0.385722143823007 4.73592792976618e-06 1.9003233530024e-43 0 0 0)
(-0.00101453833635249 2.78958757605047e-09 8.76397125275378e-41 0.345139469717605 4.76586371309434e-06 8.97731563281103e-40 4.47290839996987e-23 4.65391702289845e-29 8.53340934571562e-61)
(-0.000960232933156222 3.04526766384032e-09 -8.7352446144703e-41 0.306857022889323 4.7613194079249e-06 8.9992120113903e-40 -4.472908401907e-23 -4.65391704964979e-29 -8.53340934621903e-61)
(-0.000902885806356333 3.21423586051756e-09 -8.76397125276095e-41 0.270987304205186 4.72467511291431e-06 -5.7197182098622e-43 0 0 0)
(-0.000843498907242221 3.30677059293157e-09 0 0.237603845398499 4.65863418921853e-06 0 0 0 0)
(-0.000782983953999271 3.33349393445578e-09 0 0.206744637751038 4.56609175075883e-06 2.85031325558793e-38 0 0 0)
(-0.000722157996164175 3.30493094069098e-09 0 0.178415706582022 4.45004481383213e-06 2.88784178264374e-38 0 0 0)
(-0.000661742671589299 3.23127478734758e-09 0 0.152594748005708 4.31348695449247e-06 0 0 0 0)
(-0.00060236471079301 3.12199494578095e-09 0 0.129234679590362 4.15936057045923e-06 1.20858155888118e-37 0 0 0)
(-0.00054456064477314 2.98597591806953e-09 0 0.108267152405934 3.99045872527702e-06 1.22417183081777e-37 0 0 0)
(-0.000488779476661127 2.83086438667557e-09 0 0.0896057321276807 3.80944884227926e-06 1.25459928727919e-37 0 0 0)
(-0.000435392191063088 2.66400454770326e-09 0 0.0731491286943615 3.61872491336774e-06 1.27034187804899e-37 0 0 0)
(-0.000384693575738421 2.49079344901692e-09 0 0.0587837159516351 3.42058629028474e-06 1.30046820582285e-37 0 0 0)
(-0.000336916230226087 2.31740420142908e-09 0 0.0463865098974844 3.21689794218664e-06 1.31616869882081e-37 0 0 0)
(-0.000292228964387457 2.14622009281534e-09 1.42840805420873e-28 0.0358267593661262 3.00960044059061e-06 4.66118117179589e-30 0 0 0)
(-0.000250757508128981 1.98218739693114e-09 5.7182372711306e-28 0.0269688580770277 2.79986185616252e-06 4.51716268582068e-27 1.55783559152234e-17 1.61584199974492e-21 2.60815904150815e-42)
(-0.000212570862822113 1.82185372418074e-09 6.92556802228013e-32 0.0196726509797793 2.58932942916639e-06 1.82755104304966e-26 2.26975213018925e-17 2.98692622713787e-21 2.10815658552548e-41)
(-0.00017771920229757 1.67270878107789e-09 -5.71823727110074e-28 0.0137968823573502 2.37870278002119e-06 4.62028743393365e-27 7.94505064326048e-18 1.37082860745129e-21 2.66174460251626e-42)
(-0.000146196868535824 1.53510649342543e-09 -1.42910061071961e-28 0.00919741733483511 2.16985764628093e-06 -5.59612934637102e-30 0 0 0)
(-0.000118004413810695 1.43024490815341e-09 2.6220672790599e-38 0.00573221552747528 1.96234040079949e-06 8.4897347504706e-37 -2.40917848060263e-23 -4.36766176608064e-27 -4.08749029379259e-57)
(-9.30818644334138e-05 1.33465624449133e-09 3.33522838416581e-40 0.00325666232228656 1.75975484207951e-06 8.59228672984421e-37 2.40917848057649e-23 4.36766176603325e-27 4.08749029374824e-57)
(-7.14041642243211e-05 1.26701754356681e-09 3.27192498249794e-40 0.00163076250845944 1.55983022545666e-06 8.67462584013923e-37 1.12580521412952e-23 4.57065278091315e-27 4.13904144420315e-57)
(-5.28663303539489e-05 1.17960260418624e-09 -2.65009637140047e-38 0.000711599103689954 1.36589681858065e-06 2.7145136383004e-37 -1.12580521411935e-23 -4.57065278087188e-27 -4.13904144416578e-57)
(-3.74255693872408e-05 1.15170990646197e-09 -2.65478652889791e-38 0.000362002410847442 1.17386732695777e-06 -1.32834191079192e-39 0 0 0)
(-2.49371878364062e-05 1.06291641602101e-09 2.71063091649983e-38 0.000443455383510581 9.93269987966805e-07 1.47422180404936e-39 0 0 0)
(-1.5309934521997e-05 1.11222026033801e-09 1.08761453735778e-37 0.000819465837275 8.15887030512103e-07 2.84608243818863e-37 -1.07297486977914e-24 -4.92226054115132e-27 -1.06008428865613e-56)
(-8.3433104717379e-06 9.8799342014978e-10 1.6314574480347e-40 0.00136392303885315 6.61638704525843e-07 1.11734828302729e-36 1.4949776356817e-24 9.92160752868427e-27 2.12144149324989e-56)
(-3.78906729165686e-06 1.19202811717406e-09 -8.1260176772224e-38 0.00193422399135442 5.16127575102411e-07 2.75419220513562e-37 -4.22002765903396e-25 -4.99934698754233e-27 -1.06135720459575e-56)
(-1.30421092347284e-06 9.19788488723809e-10 2.45173627869521e-40 0.00244185435679162 4.17495411529372e-07 2.82588662690273e-37 2.46087043286257e-26 5.16411775846169e-27 4.2925191232001e-57)
(-2.55572927966428e-07 1.43021644464144e-09 2.27429061950372e-40 0.00272421427502581 3.47894798018605e-07 2.82725699742327e-37 -2.4608704329063e-26 -5.16411775855345e-27 -4.29251912327637e-57)
(2.3531399384973e-07 7.10923849542052e-10 8.35595098150547e-38 0.00279767587457968 3.64019226940866e-07 2.90545260158197e-37 2.3028036678108e-26 5.33117645861879e-27 1.08298474490774e-56)
(1.24484511651394e-06 2.12536203251184e-09 8.36857470772909e-38 0.00246218626690414 4.80746774765389e-07 1.14692347364739e-36 -1.43182920935766e-25 -1.08281805462686e-26 -2.81891279120525e-56)
(6.02504076939597e-06 3.74023265617029e-10 -8.3205578980757e-38 0.00197148994042064 7.13772240506217e-07 1.13880161927021e-36 7.10402962202724e-25 1.10231906817501e-26 2.82265921818544e-56)
(1.38026570369025e-05 3.90734114205365e-09 -1.11414453103093e-37 0.00111829061851357 1.28778456675065e-06 2.78288385160105e-37 -5.90248077951692e-25 -5.52618659418411e-27 -1.08673117190771e-56)
(3.77045972528863e-05 -3.60625708488312e-10 2.16220484679399e-40 0.000549751970713668 1.79193921377186e-06 7.70904381394584e-41 0 0 0)
(5.89232929795361e-05 8.9543183905407e-09 1.11280094691433e-43 0.000472685048732943 3.32114097563756e-06 2.88508062038884e-37 9.20639701925955e-24 6.50155773929813e-27 2.1912741630006e-57)
(0.000129547031919284 4.79320426080466e-08 -4.80378168456053e-41 0.00132498310280585 3.62270391260722e-06 2.5738505613478e-36 1.01076789848714e-23 3.73981319829217e-27 -3.74806604686977e-60)
(0.000130914187933418 1.91268226554412e-06 -2.23078943538122e-36 0.0059113128672782 5.58817740889634e-06 2.05572297959473e-34 -7.46991656699603e-22 -6.79927764508737e-25 -2.53798640221412e-53)
(-0.000808519370407421 6.97574279567675e-07 1.80308010109448e-33 0.0109766435282677 6.59928734591396e-05 1.54401786740632e-34 8.38515540516065e-23 1.27869401373202e-24 2.82305681641244e-52)
(-0.00168485942263158 -3.21700195394802e-05 -2.97155160338836e-33 0.0103457075420967 0.000262392341925862 1.84274994266475e-32 -8.44062959028832e-23 -1.28715354787443e-24 -2.84173348594241e-52)
(-0.0021700413295243 -0.000114633820957832 -3.28200215514434e-32 0.00875620151234348 0.000514897436882706 1.61062353277933e-31 0 0 0)
(-0.00169765509460532 -0.000161621575383817 -7.07276056877658e-32 0.0049509747826418 0.00051425687660627 2.26551178381077e-31 2.05425642410859e-20 2.12849922789754e-21 9.37544491207193e-49)
(-0.000860279232228233 -0.000122488716743803 -5.84164528196825e-32 0.00184217625078718 0.000291375734053741 1.50495791818974e-31 0 0 0)
(-0.000288887415086988 -2.87006658894692e-05 -8.8550931766799e-32 0.000392264296539062 3.74752831588994e-05 2.08463232770426e-31 2.95999343367419e-24 3.23136636681011e-25 1.0424832697456e-51)
(-0.0012309020877231 -0.000230933203108343 -1.53667467012939e-32 0.00233556250003914 0.00046272243235295 6.22639028376845e-32 -3.07113079263767e-24 -3.35269282644517e-25 -1.08162485568463e-51)
(-0.00561108318117505 -0.00164912599751068 -3.42015732786896e-31 0.00983328475861643 0.00294291551008804 7.27114398910573e-31 8.99793415333027e-20 2.69023324392291e-20 6.58777202394117e-48)
(-0.0163087576610389 -0.00611211134897003 -5.780124463592e-31 0.0260449411938573 0.0098408922260748 8.53081625894336e-31 -2.44333403387548e-19 -9.22785248738512e-20 -8.02999841992428e-48)
(-0.0360244235603857 -0.0158693690647797 -7.15904890169971e-32 0.0535620719129625 0.0236972006982112 -6.41838515249744e-33 0 0 0)
(-0.0675796005913073 -0.0333055669237957 -1.38245815023668e-31 0.0953388057335208 0.0470972340444421 1.90488222816586e-31 0 0 0)
(-0.113252733834636 -0.0602829275782786 -2.01016043459775e-32 0.15403034251016 0.0820817453649535 -1.67680604728362e-33 0 0 0)
(-0.175215604075149 -0.0978938686722882 1.62135148949479e-32 0.232805723269446 0.130112990776048 1.23285174948562e-33 0 0 0)
(-0.250992557945264 -0.143887773310272 -3.88099424601461e-31 0.32954935619969 0.188930500291747 5.04479549459563e-31 -8.01876929001526e-22 -4.51547236697169e-22 -1.58528973978583e-51)
(-0.333987165091533 -0.194706415802859 -2.67319214242533e-31 0.435195767856074 0.253747612966221 3.23512296092903e-31 8.27496223188739e-22 4.6597379154365e-22 1.63593841509578e-51)
(-0.42528249949608 -0.25304274657406 -7.25271649561689e-38 0.548676814733822 0.326570636110192 7.29036097624511e-38 0 0 0)
(-0.533470919025388 -0.325661887456952 -5.590028270555e-38 0.679440176219896 0.414969422548288 7.08959340816969e-38 0 0 0)
(-0.663442296307402 -0.417945361129065 -2.25147249846289e-31 0.83179611543687 0.524301351358251 2.81143408171584e-31 0 0 0)
(-0.834553158546505 -0.544850882922446 -2.15965276884592e-31 1.02720715753683 0.671035995903156 2.64713287202053e-31 0 0 0)
(-1.06692406468069 -0.725054933119482 -1.96475607188606e-31 1.28680810824929 0.87485225498999 2.4722275255643e-31 1.32431652130303e-17 9.00332938142304e-18 2.54079511271011e-48)
(-1.44868478884121 -1.02028318538133 -8.87392175430954e-32 1.7139374209569 1.20657461416099 1.13608070965706e-31 0 0 0)
(-2.08350233788744 -1.47123318966634 -9.97425007005919e-32 2.45997559695432 1.73424074644787 1.04673097685957e-31 0 0 0)
(-3.05868294421355 -2.06436772091982 -8.60359484320954e-33 3.69219300189847 2.48465014075877 -1.74454840748592e-34 0 0 0)
(-4.52691566773645 -2.76554521082243 -1.36435469628162e-31 5.74265806467117 3.49222300556486 1.713081110427e-31 -5.80447156360958e-17 -3.52981642886477e-17 -1.73130634704061e-48)
(-6.74150138080024 -3.4811133457838 4.76067592526099e-33 9.30109579624996 4.76968814535802 -2.69745990206304e-35 -9.7267649117533e-22 -3.82846882627583e-22 -2.08953718767014e-53)
(-9.7776527793453 -3.85943486693842 -4.41258318439141e-32 15.4361095440317 6.0307170439861 7.48472415376591e-32 9.69253799229004e-22 3.81499706095885e-22 2.08218444277636e-53)
(-12.5760863445998 -3.2235633631212 -5.29564767434208e-32 24.6635287882084 6.23379588543323 9.4218047951067e-32 1.09623751891349e-16 2.77047959826086e-17 4.18549796937202e-49)
(-10.8298988563383 -1.3523281173121 -3.56724094135963e-33 30.7686259149824 3.75166215128249 5.5388665802942e-35 3.39938581243382e-21 2.75067758168808e-22 1.6773250495542e-54)
(-4.81842831281397 -0.217679117415988 -1.74305878151627e-33 23.7163952375361 0.992205250813231 9.11350001563131e-33 -4.77711353881145e-17 -1.99820651595721e-18 -1.83599475473768e-50)
(-1.14931457637337 -0.0144243193961579 -2.50031468288668e-34 12.3453210316473 0.114261589067129 9.40907439247893e-34 3.38413330908626e-22 2.00445762303032e-24 2.2403359443119e-55)
(-0.0961543435109888 -0.000443992914657706 -4.59171130138279e-35 4.37716804885879 0.00348536425393772 3.98907889519513e-37 -3.37982687586447e-22 -2.00190687750375e-24 -2.2374850350074e-55)
(-0.00755819706505576 -3.88594668181262e-06 -2.89110081985028e-42 1.95095719500831 3.07114869149582e-05 1.2578986957602e-44 0 0 0)
(0.0134139013228432 1.30840534900447e-05 0 6.05498365239293 1.24635406927651e-06 0 0 0 0)
(0.0530988941792594 0.000297110801968929 1.47146871191244e-42 6.50568172395874 0.000672046819422627 1.38564110415692e-40 0 0 0)
(0.282437159835049 0.00112907454067078 5.76386812363205e-34 4.61517756486881 0.0130943549614157 7.31738403853846e-36 0 0 0)
(0.0692843446948015 0.00201811657243046 5.25673928067127e-35 0.687969192764072 0.0070973533812857 3.42167881048477e-34 1.77451771475556e-19 2.27166319821957e-21 2.18586705003625e-50)
(0.0396491164260863 0.0111974682086139 -7.5754703543986e-33 0.094485294868724 0.0237033951441818 -1.9961947179894e-32 0 0 0)
(0.212400824463778 0.0574094307719078 3.24993550254512e-32 0.416393437534294 0.109403573172237 4.3561150462988e-32 0 0 0)
(0.147288800210696 0.0577658735226987 1.05681937142268e-31 0.243981998270733 0.0923369625427579 1.66109363242113e-31 1.04369218774314e-18 4.07761518658193e-19 1.45744297559528e-48)
(0.0968439009473303 0.0502781069609176 -1.04955172863783e-32 0.137918917587031 0.0700471337163146 -5.94690227247687e-35 0 0 0)
(0.0722002365433973 0.0443482098127946 -2.41104188999418e-33 0.0934744896216192 0.0567723245999852 -6.63032103481031e-32 9.44179171331734e-19 5.7348122034959e-19 -6.64027652139865e-49)
(0.0519486143630747 0.0350842571014661 9.2688580320619e-32 0.0639917425730147 0.0429556882575141 1.11540707300941e-31 1.23183131451435e-18 8.33511344290796e-19 1.49255762500441e-47)
(0.0380142644493436 0.0266996883087131 -3.40968119547903e-32 0.0457494845286316 0.0320787313942233 5.618371443904e-34 -2.52200950117414e-23 -1.88336384844703e-23 3.11080674023873e-52)
(0.0274122629954625 0.0191075615075176 -7.73243284996885e-32 0.0330373639667246 0.0230723295394883 -1.09848131336987e-31 1.43461096406494e-19 1.0192072663892e-19 4.66415904944374e-48)
(0.0210801069755191 0.014205148075765 8.00774778903654e-33 0.0257667772970552 0.0174242249185004 5.23322653683587e-33 -3.73309756283565e-19 -2.53465263295591e-19 -1.82906056024028e-48)
(0.0179481057034512 0.0117541154295067 -5.72331560543127e-32 0.0222124476373918 0.0145904657065831 -7.47578247272697e-32 3.17273047057635e-19 2.08941887911816e-19 1.91201267870664e-48)
(0.0170572381871793 0.0109431970502035 1.01614449221968e-31 0.0212821611412065 0.0136844676214172 1.23163833069232e-31 8.53012089483473e-20 5.50192133058708e-20 2.80008677257713e-48)
(0.0182796153601861 0.0115928997716477 1.72919871790069e-31 0.0228964801227644 0.0145463699442787 2.1569843288948e-31 3.20749493243375e-19 2.03505085457065e-19 4.17836851406957e-48)
(0.021886543183363 0.0137692988050879 1.54053562286307e-31 0.0274713657542729 0.0173098508861923 2.24161730510081e-31 -3.83403563819095e-19 -2.40784674566683e-19 -4.30705701083554e-48)
(0.0282040797774741 0.0176325651120628 7.64575243275966e-32 0.0354877973367266 0.0222212459345363 1.27788618709615e-31 -2.99266098312148e-22 -1.83142801431351e-22 -2.02989624754764e-57)
(0.0372870591522406 0.0230952713982275 -7.52245815277842e-32 0.0471295297928775 0.0292593769599828 -9.79628413449327e-32 -1.06506313480366e-22 -6.14249855584776e-23 -2.02438846461669e-58)
(0.0478879277437058 0.0289807502343026 1.23173811610519e-37 0.061203501561229 0.037198429209846 1.28049049564482e-37 3.84216064319759e-22 2.31492301596126e-22 2.10224598107715e-57)
(0.058858209996264 0.0339379751129529 2.03277479870821e-31 0.0770050522362952 0.0447195510235455 2.34821690507374e-31 6.28864844581929e-22 3.45889212821091e-22 2.41266330073305e-51)
(0.068842721251584 0.0367641119264056 -7.35851077109179e-32 0.0934945087399527 0.0504639405525374 -1.02872853139089e-31 -3.81930206639171e-19 -2.02950172560128e-19 -3.44991306064838e-48)
(0.0760264140647551 0.0363817041203614 1.48491062734345e-31 0.108921108549465 0.0529241006525673 2.58122351991182e-31 7.14175672751754e-22 3.60386702579219e-22 2.28660103458287e-51)
(0.0787779581246011 0.0324601767985893 3.2045231475431e-32 0.12135586555926 0.051095084820929 -2.90936325517378e-33 0 0 0)
(0.0765501535444873 0.0258690171125543 1.78389920802945e-31 0.129684228520537 0.0451815336458527 2.88225483247676e-31 -1.68149725472405e-18 -5.84459213364608e-19 -5.25250923644428e-48)
(0.0707734858604372 0.0186012225950806 -9.13871845148846e-33 0.135283036897653 0.0370723282865424 4.44560407582581e-32 -8.4859199375105e-19 -2.32192134197398e-19 -6.81237350497884e-49)
(0.0626547315638746 0.0121542772303681 1.20367153815442e-27 0.13844931601781 0.0284142521340782 2.38622393116644e-27 -1.68038153952389e-21 -2.96411497562143e-22 -1.86642278054207e-47)
(0.052384282478096 0.00699450623754991 1.5579727891047e-28 0.137974675685672 0.019959161367075 4.00240212314675e-28 -9.1913377626348e-17 -1.33184959294017e-17 -7.15628833040708e-43)
(0.0412985422888434 0.00343139974026344 3.96587658148576e-29 0.135008270338909 0.0126833444765926 3.06551869801155e-31 2.27810638283014e-18 2.1045252557442e-19 -1.19542717679908e-44)
(0.0308946997506306 0.00135481919573038 3.31646179159042e-28 0.132697127618663 0.00720242201599358 1.39811587294772e-27 9.01131133718069e-17 4.89957715907964e-18 1.44122298952078e-42)
(0.0219019946537078 0.000359835050012279 -1.51872340296843e-28 0.137050093593928 0.00353941801609062 1.32661944279118e-29 -1.30743466169825e-21 -5.22710639978913e-23 -2.31739151339286e-47)
(0.0164822428660228 2.79007396621206e-05 2.027364718317e-28 0.157192344783417 0.00150674759222415 -1.67680790457513e-29 -1.84760571911332e-21 -6.95296517793763e-24 -3.06791506219575e-47)
(0.0145350140809025 -2.06269513664976e-05 1.76827704128387e-28 0.262140575707265 0.000686463877008496 -9.08840017900255e-28 4.83823347489855e-17 6.57586751319462e-20 1.69832390818699e-42)
(0.01643999164666 -6.62944153510634e-06 -2.02911188033372e-28 0.463847499135831 0.000448177917560659 -9.01509612654388e-28 9.62756810746149e-17 3.37096286260928e-20 1.58694074450432e-42)