/*--------------------------------*- C++ -*----------------------------------*\
| =========                 |                                                 |
| \\      /  F ield         | OpenFOAM: The Open Source CFD Toolbox           |
|  \\    /   O peration     | Version:  3.0.1                                 |
|   \\  /    A nd           | Web:      www.OpenFOAM.org                      |
|    \\/     M anipulation  |                                                 |
\*---------------------------------------------------------------------------*/
FoamFile
{
    version     2.0;
    format      ascii;
    class       volVectorField;
    location    "30000";
    object      grad(k);
}
// * * * * * * * * * * * * * * * * * * * * * * * * * * * * * * * * * * * * * //

dimensions      [0 1 -2 0 0 0 0];

internalField   nonuniform List<vector> 
21000
(
(0.000122499896115813 0.0224950448380387 0)
(0.000220940347228662 0.0243136157325211 0)
(0.000977113331603883 0.0155246957839922 -2.07521549818983e-24)
(0.000729608642557356 0.00450695132528076 -9.08028412901471e-21)
(0.000753697626294218 0.00201184942337147 1.2043996126945e-30)
(0.000646121196405272 0.00129880346685026 0)
(0.000361889970893851 0.000627978581676063 -5.90468204319602e-21)
(0.000268245284216457 0.00038798254247326 -2.36408111790315e-25)
(0.000207569446166113 0.000271458332031649 2.74553616895489e-21)
(0.000150382936105876 0.00018776988600303 -1.9354380045067e-21)
(0.00011112975517348 0.000135724826829236 1.46667795896925e-25)
(7.94852682820908e-05 9.73564245735143e-05 -1.01078379638945e-21)
(6.11144587928378e-05 7.54637710374597e-05 -3.12559456961791e-25)
(5.27671068544017e-05 6.53996874939346e-05 4.33116536382648e-25)
(5.11909485328518e-05 6.33938069437948e-05 -6.43125036030626e-22)
(5.62125942963237e-05 6.92627428569107e-05 0)
(6.89437170937805e-05 8.45070946800567e-05 0)
(9.11095159865605e-05 0.000111459980924393 1.58183563932052e-24)
(0.000123867512075797 0.000152285285122758 -3.64943451164231e-24)
(0.00016352795925752 0.000203993985598859 2.0508872909126e-24)
(0.000206209035274958 0.000264508412539102 3.34363730060462e-24)
(0.000247148964446758 0.000330802345475003 3.22400283305782e-21)
(0.000279294029284367 0.000396655045309935 7.95137967319983e-24)
(0.000295691709043528 0.000454260017283159 -4.05531883551611e-24)
(0.000293086239242631 0.000497515613316746 0)
(0.000276804088914134 0.000531533724823226 -6.67968718040126e-31)
(0.000251550498821162 0.000559188546079227 -6.86164044302417e-24)
(0.000216082798717279 0.000573067255961858 6.64211763041946e-24)
(0.000173622552719798 0.000571963180758549 0)
(0.000129427648089081 0.00056164548157138 0)
(8.6858346918059e-05 0.000560649318281233 3.8441373755656e-24)
(5.4750288221749e-05 0.000572581085958203 -1.30833838896434e-24)
(4.56912371227832e-05 0.000779095000250231 -4.47842228155509e-19)
(5.75172184116906e-05 0.00134577597866843 -7.81950177396657e-19)
(6.46372990131145e-05 0.00199219968531273 1.49149446084222e-23)
(6.85880564510195e-05 0.00270153449089632 -1.49149446084221e-23)
(6.77083578061603e-05 0.00341370211518324 2.55492322621323e-23)
(6.54443420710316e-05 0.00412588170343939 5.10617951820196e-24)
(6.18825990663991e-05 0.00481935061625847 4.82828079382311e-24)
(5.81802760910206e-05 0.0054966915638239 -7.55067987129415e-23)
(5.42488802819441e-05 0.0061541486707466 -4.23267333149136e-24)
(5.03236900459555e-05 0.00679339504542659 4.42557794699164e-23)
(4.62928519447454e-05 0.00741317246778324 0)
(4.21708481488607e-05 0.0080131890719403 -5.50844211296757e-23)
(3.78966989948123e-05 0.00859180789037844 -2.9568231888537e-24)
(3.34684616162431e-05 0.00914746472846578 1.18693806402977e-22)
(2.88798701213433e-05 0.00967815123202592 5.55877724705016e-18)
(2.41568138379733e-05 0.0101820626088995 5.89602320474349e-18)
(1.93327981119699e-05 0.0106576046070837 -6.47906559348259e-23)
(1.44514649675541e-05 0.0111035733721364 -6.74266135536599e-23)
(9.5434487017225e-06 0.0115185690904402 6.7426613554412e-23)
(4.6143023388475e-06 0.0118988558510443 -3.42656235710967e-23)
(-2.39004148263388e-07 0.0122404235572773 -7.04036274004534e-18)
(-4.90253130064317e-06 0.0125425910053978 -7.2519940707065e-18)
(-9.34051374812545e-06 0.0128047010360557 -3.40650439478352e-23)
(-1.35034438787255e-05 0.0130264890711696 0)
(-1.73448414020385e-05 0.0132081546058872 0)
(-2.0826479494962e-05 0.0133503285699327 7.49243760913275e-34)
(-2.39190645992229e-05 0.0134540411412055 -7.55066251173074e-34)
(-2.66025640964898e-05 0.0135206800499139 0)
(-2.88661723802266e-05 0.0135519419169105 0)
(-3.07079267863104e-05 0.0135497798103117 1.36948632530202e-23)
(-3.21340513273307e-05 0.0135163485715291 -1.36948632529704e-23)
(-3.31580805740628e-05 0.0134539504751342 1.24212873560413e-23)
(-3.37998396708372e-05 0.0133649825695898 -1.24212873560396e-23)
(-3.4084326071092e-05 0.0132518872691781 7.639848229868e-18)
(-3.40405678224364e-05 0.0131171074003368 3.74486260140122e-19)
(-3.37004988071781e-05 0.0129630461801759 -7.1128046090033e-18)
(-3.30978891798816e-05 0.0127920327961586 2.44395184790428e-24)
(-3.22673669138523e-05 0.0126062936687991 0)
(-3.12435471208057e-05 0.0124079294237247 0)
(-3.00602876194773e-05 0.0121988972758383 1.82625605270028e-24)
(-2.87500690717381e-05 0.0119809985472952 -1.82625605338494e-24)
(-2.73435057772039e-05 0.0117558706514205 0)
(-2.5868978012575e-05 0.0115249833285907 0)
(-2.43523696057523e-05 0.0112896377306761 0)
(-2.28169022679332e-05 0.0110509692630097 0)
(-2.12830741004693e-05 0.0108099518323354 0)
(-1.97686328757507e-05 0.0105674046546949 0)
(-1.8288669075627e-05 0.010323999234794 0)
(-1.68556546664747e-05 0.0100802686587986 0)
(-1.54796740539234e-05 0.00983661425539432 0)
(-1.41684539293908e-05 0.00959331835828123 0)
(-1.29277272379894e-05 0.00935054404629829 0)
(-1.17611733838872e-05 0.00910835693893875 0)
(-1.0671028507518e-05 0.0088667083277184 5.1164381857733e-18)
(-9.65760224126425e-06 0.0086254729953627 9.95034409706532e-18)
(-8.72058440140973e-06 0.00838440259439667 4.83414992291662e-18)
(-7.85753829699831e-06 0.0081431964144874 0)
(-7.06654379454087e-06 0.00790140549281976 -5.52926257826104e-24)
(-6.34293875995984e-06 0.0076585578090191 5.52926257820105e-24)
(-5.68437667791302e-06 0.00741394512547614 4.59085247584341e-24)
(-5.08359687307424e-06 0.00716694695190208 -4.59085247580196e-24)
(-4.53959517788557e-06 0.00691649460084702 0)
(-4.04121020459491e-06 0.00666182766111978 0)
(-3.59106469876091e-06 0.00640131076701353 -3.24452506000425e-24)
(-3.16944762392009e-06 0.00613419434502282 6.2417595517308e-24)
(-2.78476327434238e-06 0.00585788997733382 -2.99723449173219e-24)
(-2.39599254690372e-06 0.0055721563251166 2.59301514398998e-24)
(-2.06057678372002e-06 0.00527269627002075 -2.59301514403605e-24)
(-1.74699217660915e-06 0.00496290115298139 2.29593628243584e-24)
(-1.44975526358463e-06 0.00463953424152942 -4.47875796398983e-24)
(-9.53714099323548e-07 0.00430362033962284 4.29123150033269e-24)
(-6.29209854268903e-07 0.00394221103348278 -2.10840981881108e-24)
(1.09700144884185e-07 0.00356618757178707 0)
(3.29654578696489e-07 0.00316123867321684 2.09359670663432e-24)
(1.85968975431418e-06 0.00273603960403683 1.45099017473237e-25)
(-2.02314305622185e-05 0.00230681130128985 -2.8695409506955e-22)
(-0.000199175695704304 0.00249811993705144 6.30152847766712e-24)
(-0.000457007286089372 0.00287480884376754 -6.34321759222636e-24)
(-0.000800178610122624 0.00338563950101963 0)
(-0.00121205116558664 0.00388613687095277 1.60821872373618e-20)
(-0.00168718540976774 0.00438334942922158 0)
(-0.00221573499059323 0.00486454387856188 3.02377828231868e-24)
(-0.0027961805464728 0.00535866607156849 -3.13730920242105e-24)
(-0.00351872188338195 0.00602438295922575 5.51947177942016e-20)
(-0.00433471689016454 0.00679498385734161 -6.38074995145922e-20)
(-0.00520351848682772 0.00764137993383402 0)
(-0.00612795924058749 0.00858388408754467 -1.56424534493735e-30)
(-0.00710444749535896 0.00963374048655295 0)
(-0.00812655726407512 0.0107989403535553 0)
(-0.00908006610587583 0.0119465481593127 -4.65534970469895e-23)
(-0.00992550735954647 0.0129724308310042 4.80408439520831e-23)
(-0.0107980180213946 0.0139837954263598 0)
(-0.0118290204959191 0.0151350799806923 0)
(-0.0130886516735923 0.0165042306586849 0)
(-0.0148008861481336 0.0183523170458348 0)
(-0.0171770794412866 0.0209414901606083 2.15512004370993e-19)
(-0.0212298426560664 0.0255155988017199 2.28009324508978e-30)
(-0.0275453834341349 0.0331713807423977 -2.38055808184444e-30)
(-0.0363870394672138 0.044935241213069 0)
(-0.0484193788109555 0.0630640022862193 -6.3769574303899e-19)
(-0.0647383208525792 0.0920267739796404 -3.97607667409884e-23)
(-0.0841485360935706 0.13684939392904 3.96208524567478e-23)
(-0.0967745276557218 0.192400928727553 8.55426027922504e-19)
(-0.0736675975785136 0.202737195645149 1.08062880438446e-22)
(-0.0316856962354987 0.134789760675913 -2.71427979067314e-19)
(-0.00930474102795411 0.0681845512162164 1.04854761184581e-23)
(-0.0017972079558968 0.0303226127028998 -1.04721326761717e-23)
(-0.000226217513542267 0.0215974924514105 0)
(1.04444478342957e-05 0.115249940460058 0)
(0.000882535743961251 0.112164659505138 0)
(0.00553372846654444 0.0744905038880356 0)
(0.00572452252166488 0.0318924886112508 8.80539479623962e-21)
(0.00188261099875263 0.00601336172472786 0)
(-0.000161127603081025 -0.000209954827749588 0)
(-0.000138529458429 -0.000200316932021789 5.7216367270793e-21)
(-1.93360502638626e-05 -2.05245786595216e-05 0)
(-4.11551701699823e-05 -4.75873905916207e-05 -4.81838759060392e-22)
(-2.50946608610733e-05 -2.77490992723277e-05 3.46371538703958e-21)
(-2.3286973404392e-06 -1.31817186490441e-06 -5.23331297405755e-26)
(1.91639737403747e-05 2.34536374116663e-05 9.7916430072523e-22)
(3.44905959909203e-05 4.18443071662418e-05 -1.1821848844629e-21)
(4.73950199354265e-05 5.81211767507888e-05 1.23877732272611e-21)
(6.13748323617723e-05 7.62022652476314e-05 6.23129669263665e-22)
(7.89808474345436e-05 9.90969580263064e-05 1.67419537896814e-21)
(0.00010372794535079 0.000131203862751551 -2.13774134479241e-21)
(0.000139396062701271 0.00017735867874242 -1.00101986620719e-24)
(0.000190530746626866 0.000243521142592958 -3.92088001858114e-25)
(0.000261528623028484 0.000337592157382156 1.31989243993512e-24)
(0.000353529306202676 0.000466523663441288 2.38505191620726e-24)
(0.000466885242215443 0.000638337336399469 -3.13648049077635e-21)
(0.000596269554635429 0.000857628846522719 2.91374199715509e-24)
(0.000728204960269783 0.00112207997499418 0)
(0.000841492873936458 0.00142115423359958 -1.74500022077544e-20)
(0.00091411943428571 0.00173698987913524 -1.00440977635226e-20)
(0.000939699795542819 0.00205582236994621 -1.20982919653241e-23)
(0.000904120922319549 0.0023450721485896 -1.400724687068e-18)
(0.000800005609240096 0.00256449118993078 4.55585258361877e-20)
(0.000641353497401928 0.00270738033649954 1.64033351726134e-18)
(0.000454844742562412 0.00282468404021912 -1.29583161680519e-23)
(0.000266155232868359 0.00308529074019665 -1.55972706665568e-23)
(8.2534918529273e-05 0.0037573580722354 4.4454065961894e-19)
(6.26205525691187e-05 0.00527624257056341 7.48401865988076e-19)
(6.95364849273415e-05 0.00709051387341233 0)
(7.1999086619816e-05 0.00892286127207636 0)
(7.31459688086566e-05 0.0108082483933826 0)
(7.35870441475763e-05 0.0127192507379239 0)
(7.37561994359767e-05 0.0146648747438514 -1.08609173162317e-33)
(7.39608288022472e-05 0.0166462630390643 4.85315803787614e-23)
(7.41937780075171e-05 0.0186689725928386 -4.85315803791483e-23)
(7.44629776972634e-05 0.0207350470490827 5.97749143270149e-23)
(7.46849717907154e-05 0.0228452367162365 -5.9774914327708e-23)
(7.48071822130546e-05 0.0249979845595444 0)
(7.47646584205479e-05 0.0271899746482282 0)
(7.45224531218567e-05 0.029416466218933 0)
(7.40630032277364e-05 0.0316718017089719 -5.44592255651824e-18)
(7.34013650108465e-05 0.033950238463842 -5.66036086234482e-18)
(7.2563352132319e-05 0.0362466835812981 0)
(7.15233754605442e-05 0.0385565837094866 0)
(6.99952302964008e-05 0.0408736850668938 2.59243162211864e-17)
(6.7711166510735e-05 0.0431897454535097 2.73227408658252e-17)
(6.48782896245901e-05 0.0454646927846312 6.87811132082555e-18)
(6.17154418822529e-05 0.0476835496192931 6.97940368453191e-18)
(5.82271974866954e-05 0.0498332225632867 6.22065265296451e-23)
(5.44484742198204e-05 0.0519008461814353 0)
(5.04211410224037e-05 0.0538744237087445 0)
(4.61890696928122e-05 0.0557429533616619 -7.26447972589872e-34)
(4.17979471401807e-05 0.0574965954015961 7.32093313219055e-34)
(3.72939614272384e-05 0.0591267971884478 0)
(3.27226888681459e-05 0.0606263813452093 -7.43493985735253e-23)
(2.81280941730062e-05 0.0619895981973022 1.12055949834907e-22)
(2.35516619129345e-05 0.0632121419421763 -3.77065512611161e-23)
(1.90316930706307e-05 0.0642911343386404 0)
(1.46027454729893e-05 0.065225078443866 0)
(1.02952509279332e-05 0.0660137862078854 -7.42051142515504e-18)
(6.13527675842934e-06 0.0666582854691197 -3.40735820858437e-19)
(2.14441999072324e-06 0.0671607094503232 6.88714409847267e-18)
(-1.660165961945e-06 0.0675241743255167 -6.96128330716586e-34)
(-5.26563948580056e-06 0.0677526487710202 0)
(-8.66325461153338e-06 0.0678508200234225 0)
(-1.18480720046188e-05 0.0678239593981215 6.6387009119272e-34)
(-1.48186360390894e-05 0.0676777914675037 0)
(-1.75766052081587e-05 0.0674183673637891 0)
(-2.01264192016776e-05 0.0670519474061071 0)
(-2.24749067115197e-05 0.0665848878548267 -3.72022191134584e-23)
(-2.46309379744789e-05 0.0660235431340681 3.72022191134583e-23)
(-2.66050899083113e-05 0.0653741713844882 0)
(-2.8409399092572e-05 0.0646428566802569 7.13925329532669e-23)
(-3.00570159172725e-05 0.0638354298812921 -7.13925329531407e-23)
(-3.15621959757837e-05 0.0629574148459494 -6.90623146805377e-23)
(-3.29397128755026e-05 0.0620139504272766 6.9062314680835e-23)
(-3.42055218512864e-05 0.0610097796245178 6.65231219825391e-23)
(-3.53754765710541e-05 0.0599491284982562 -6.65231219828155e-23)
(-3.646705788237e-05 0.0588357858776308 0)
(-3.74971353363163e-05 0.0576728686387069 -4.92558743731401e-18)
(-3.84854514909621e-05 0.0564630580711677 -9.64640412988901e-18)
(-3.94499672223719e-05 0.055208129265386 -4.72333464843353e-18)
(-4.0413359464029e-05 0.0539095094113617 -3.05657751168942e-24)
(-4.13948337686838e-05 0.0525673711115611 -1.15825517974199e-22)
(-4.24252550280331e-05 0.0511817424462667 -1.09485965858492e-22)
(-4.35219803969518e-05 0.0497505803015625 1.09485965860552e-22)
(-4.4728713345457e-05 0.0482725887326485 0)
(-4.60605777261852e-05 0.0467425917770162 0)
(-4.75860068392251e-05 0.0451580553595768 0)
(-4.93012687180248e-05 0.0435089402780043 0)
(-5.13224198621796e-05 0.0417926792976621 0)
(-5.35898867148408e-05 0.0399910216455905 0)
(-5.6317345874846e-05 0.0381050224032717 0)
(-5.90805416823565e-05 0.0361012401770246 0)
(-6.18058677037752e-05 0.0340168131326943 0)
(-6.47380880636353e-05 0.0318326508682572 0)
(-6.90721997368886e-05 0.0295403539605361 0)
(-7.34387431421313e-05 0.0270389030446138 0)
(-7.85747749727402e-05 0.0244176274852635 0)
(-8.37489059115738e-05 0.0215303394286552 0)
(-8.76154588361001e-05 0.0185180845687933 -7.21681514699604e-23)
(-0.000203090607384401 0.0153124701920211 3.48181713399997e-22)
(-0.00127204802215758 0.0162193646832597 0)
(-0.00290543725342309 0.0187629186335113 0)
(-0.00515287607633634 0.0222816512800292 1.0377134048358e-19)
(-0.00794098496238887 0.0259218586967877 -1.55919191379286e-20)
(-0.0112243638401243 0.0295949211912003 -1.43209261285576e-19)
(-0.014955480884906 0.0332484046190051 1.64727394200377e-19)
(-0.0191582524918795 0.0370058153899643 0)
(-0.0239843791671514 0.0411988525419862 -5.35028534040695e-20)
(-0.0290690148304989 0.0456057420317926 -4.28194251771142e-19)
(-0.0340912172812302 0.0500026204735774 1.35840047436174e-22)
(-0.0389233584150326 0.0543574701165206 -2.91669881477015e-22)
(-0.0434103083855929 0.05859522757837 3.21326496008473e-22)
(-0.0473730187206703 0.0626002010125729 -1.70884715513555e-22)
(-0.0501871005628437 0.0656633916505841 -7.69374505565213e-19)
(-0.0519977754300774 0.0676259889874502 8.00481714335111e-19)
(-0.0536461034446337 0.0691508100904005 1.0228509841482e-22)
(-0.0554896492388616 0.0706640791189142 -1.06055582424289e-22)
(-0.057757841595683 0.072444174680366 8.95151179251042e-19)
(-0.0608834185321222 0.0750059409500716 9.46101930171045e-19)
(-0.0653804588440761 0.0789513542918766 -2.08779244891468e-19)
(-0.0731861073101086 0.0866936001971198 0)
(-0.0829381401573372 0.0980824712164208 0)
(-0.0939379794763799 0.113674729742061 0)
(-0.106166109383228 0.135154986058869 6.1773872181033e-19)
(-0.118975171521016 0.164952413003975 9.95382576789484e-24)
(-0.127774166355953 0.202917938311448 0)
(-0.118538875367592 0.233536874877296 -8.29041960170595e-19)
(-0.0786323124229379 0.222775908837226 0)
(-0.0428747264495495 0.209038634642621 2.63089948554184e-19)
(-0.0162946803183128 0.175930588844282 -5.44787894885986e-23)
(-0.00224162116916277 0.132855861667119 1.29561327547771e-23)
(-0.000159576366425946 0.117098518460571 0)
(-0.000127699710847979 0.401666269856133 0)
(0.00204464121765068 0.394660944345729 -4.66736043719925e-23)
(0.018075662560902 0.27175017440839 -5.75142023693262e-24)
(0.019166292987797 0.117394855321991 3.42624792788773e-23)
(0.00745688280764707 0.0263148790401651 1.91135980574436e-23)
(0.00113872079886129 0.00297853731202203 -1.77818890176184e-20)
(0.000573571349378235 0.000950951540072296 -1.26484315837978e-20)
(0.000655115322146794 0.00091185668260314 -1.65253635499071e-25)
(0.000414486172520382 0.000538190440526391 5.43174222440737e-21)
(0.000315592476032118 0.000385433232130491 -1.5387158383185e-21)
(0.000284700481677705 0.000337425046597039 0)
(0.000270455654396453 0.000320139632069347 -4.50283055034489e-21)
(0.000269115912926436 0.000323772970289078 -3.3276722609342e-21)
(0.000286177647882283 0.000349983100424061 3.56739231749577e-21)
(0.000324194437203337 0.000401917599352123 5.41866916358262e-21)
(0.000389957606973666 0.000488523937523943 -1.62231120795013e-21)
(0.000496980554916516 0.000627382205031763 2.07127867773802e-21)
(0.000661457353634922 0.000839587186466904 -1.11474582114917e-20)
(0.000901954992749502 0.00114942376373775 -1.31013474135108e-23)
(0.00122455046604944 0.00157474248075362 7.42763948696864e-24)
(0.00162345547020896 0.00213221057298027 2.79503637012063e-20)
(0.00208858276862295 0.00283932190283443 -1.78348313470896e-23)
(0.00258597954376085 0.00369538517426324 4.70438358694909e-20)
(0.0030547706323784 0.00467424265101514 3.27906666327541e-23)
(0.00341614527230052 0.00572829405967506 1.67976606770095e-20)
(0.00361119546544441 0.00681355716284798 9.72483047625455e-21)
(0.00363158234738907 0.00789197712873351 -7.91709472540305e-18)
(0.00342915990559006 0.00884432157769987 -7.54171847626191e-18)
(0.00299135927405348 0.00955055930880305 -1.02161435454408e-19)
(0.00237742216951621 0.0100044914889894 -1.56066087245166e-18)
(0.00169382988230188 0.0104212276386675 2.73074305030811e-20)
(0.001029726689116 0.0113722708667499 0)
(0.00042278327370373 0.0141272508737889 -5.40986096771456e-22)
(0.00040276483969313 0.0201405127846229 0)
(0.000442549784180105 0.0270842321502612 -2.69625860309266e-17)
(0.000453872003883536 0.0340932569779183 -3.4307144662364e-17)
(0.000461063778965783 0.0411628554881145 -2.02681979076532e-22)
(0.000464948857434167 0.0482201501224955 4.39452006016677e-22)
(0.000468560921639899 0.0552680697876812 3.43528688605792e-23)
(0.000472723465261608 0.0623230069303622 -5.76903840237278e-22)
(0.000477436463987995 0.0694001674328332 -3.50035854008592e-23)
(0.00048244382655851 0.0765127378909937 3.40784529831595e-22)
(0.000487259187423202 0.0836641483365655 -4.11878978676061e-22)
(0.000491477916503571 0.0908523635615216 4.11878978675277e-22)
(0.000494709316196057 0.0980678955892648 0)
(0.000496710116475287 0.105297210058481 0)
(0.000497370858770453 0.11252335754235 0)
(0.000496776540992137 0.119729224916396 0)
(0.000495083990897631 0.126900106744058 -6.29782658048075e-22)
(0.000492217377041684 0.134025289853437 6.29782658036224e-22)
(0.00048783422161657 0.141070668650748 -2.53615776151751e-17)
(0.000478445692288939 0.147976804499476 -2.62657935379812e-17)
(0.000463449180987277 0.154674925173296 0)
(0.000445750784204387 0.161133176027497 0)
(0.000425605317390518 0.167320053563353 0)
(0.00040317653346365 0.173206196606128 0)
(0.000378704216844258 0.178765182854945 0)
(0.000352449953946644 0.183973756361484 -4.58869907565641e-22)
(0.000324696324363108 0.18881208222371 4.58869907569624e-22)
(0.000295738425672439 0.193263896557621 0)
(0.000265876420867267 0.197316569194901 4.91360166588982e-22)
(0.000235408507138644 0.20096108872333 -2.4136529881299e-22)
(0.000204624497509115 0.20419197361565 -2.49994867775969e-22)
(0.00017380027856672 0.207007122300769 0)
(0.000143193068585178 0.209407609936442 -2.59555561266235e-22)
(0.000113037740504709 0.2113974422012 3.90369271939092e-22)
(8.35440599051398e-05 0.212983278745446 -1.30813710673708e-22)
(5.48947994923269e-05 0.214174132420316 0)
(2.72447750249059e-05 0.214981055677471 -3.30830279977138e-23)
(7.20657926860872e-07 0.215416821245668 3.30830279977138e-23)
(-2.4578551348004e-05 0.215495605191181 3.30283668102553e-23)
(-4.85804413781202e-05 0.215232677101873 -3.30283668102546e-23)
(-7.12377541911758e-05 0.214644104528279 0)
(-9.25264989074562e-05 0.21374647135736 -1.30167442427421e-22)
(-0.000112444189486416 0.212556619383446 3.88441346351345e-22)
(-0.00013100755609187 0.211091400246859 -2.40122745313583e-24)
(-0.000148250437470205 0.209367462231856 -2.71727090415438e-24)
(-0.000164221656299486 0.207401044136012 -2.53155405567059e-22)
(-0.000178983414421045 0.205207802891066 0)
(-0.000192608912730928 0.202802639091248 0)
(-0.000205182274182396 0.200199570769772 4.7914748392582e-22)
(-0.000216794348537148 0.197411557043303 -7.94721399163715e-24)
(-0.000227547190368771 0.194450459035753 -4.71200269932223e-22)
(-0.0002375450852391 0.191326762010154 0)
(-0.000246906216387142 0.188049718339578 0)
(-0.000255747119256669 0.184626820843829 0)
(-0.000264206534250168 0.181064260101936 0)
(-0.000272413518179126 0.177365887474416 0)
(-0.000280530902787888 0.173534278275887 -8.11539610491099e-22)
(-0.000288701043951427 0.169568910729972 2.11663172160354e-23)
(-0.000297147790375021 0.165468088822444 7.90373293267192e-22)
(-0.000306005295507322 0.161225203073773 7.4615270657749e-22)
(-0.000315589383817669 0.156833938567646 -1.46916775864458e-21)
(-0.000326026672585926 0.152279110395176 1.42212723260272e-21)
(-0.000337807630051676 0.147549057545827 -1.37345776038751e-21)
(-0.000350938138324758 0.142615441625211 6.74345579888246e-22)
(-0.000366245648293862 0.137462543195617 6.21764753293361e-22)
(-0.000383364484184838 0.132040398278411 -2.8106632974234e-23)
(-0.000403822567565697 0.126335459409773 -5.93658120313386e-22)
(-0.000423954350789164 0.120258609475749 0)
(-0.000442237846440587 0.11386970276705 0)
(-0.000463370410513887 0.107127693525231 0)
(-0.000495595931534142 0.0999834268742223 0)
(-0.000529212626893598 0.0921717469073334 -7.82878468526743e-22)
(-0.000568270587992956 0.0838551196988719 8.39737796427835e-17)
(-0.000608412482372254 0.0746810529055214 7.41088908663093e-17)
(-0.000638972434537594 0.0648753103893061 -6.10339798140447e-22)
(-0.000841726551972061 0.0544843488557408 -9.31589977654713e-21)
(-0.00427719317156407 0.0571099896632841 4.83123615278739e-22)
(-0.00975101387540988 0.0653640513859671 -6.359069644964e-22)
(-0.0172733395671266 0.0766863589673671 -9.9967335201733e-20)
(-0.0265641304065857 0.0883524033803404 8.84835418481437e-22)
(-0.0374241756014485 0.100095397479035 1.38949011219351e-19)
(-0.0497057832368823 0.111801171512423 -8.0413748771124e-19)
(-0.0634864366295345 0.123904966069194 -1.21163728732102e-21)
(-0.0793248875691046 0.137542537372173 1.52072008510115e-21)
(-0.0961128250132976 0.152049871126607 -1.42916426942212e-18)
(-0.112879849668345 0.166794809951716 8.93255479335534e-22)
(-0.129243168733095 0.181695437681297 -2.35841553426553e-18)
(-0.144758874952557 0.196564689315881 -2.58509215527857e-18)
(-0.158898175647414 0.211048913001085 2.79649425460906e-18)
(-0.169810692780883 0.223098821966037 7.45488363115134e-19)
(-0.177801130225291 0.232057744082754 -3.86478626993456e-18)
(-0.185406696532803 0.239790414226979 -6.94899365312452e-22)
(-0.1939176999252 0.247775412356531 -3.32391351186723e-18)
(-0.204210171057207 0.257045141996475 -4.33454654197926e-18)
(-0.217947397820846 0.269561241952219 -9.16578744240076e-19)
(-0.237172757379032 0.287768596064307 0)
(-0.269057411535955 0.320490745186087 -5.09411263278823e-22)
(-0.310672306644358 0.369553928532696 2.30030547164614e-22)
(-0.359690507884178 0.437842944362814 3.12462929256835e-22)
(-0.415953393013112 0.532614733063285 7.2964233884998e-18)
(-0.47702114422045 0.664838605734586 2.01055316174136e-22)
(-0.525030292072195 0.836756900808173 -1.09060318493163e-17)
(-0.50841539784621 1.00236774756014 -6.26304666652978e-18)
(-0.35239877265498 1.00014128730278 -5.8932212718486e-18)
(-0.17310018190708 0.845210744281442 2.36586281007205e-18)
(-0.061508985504727 0.647671192112626 2.37321214759738e-22)
(-0.00956310605787005 0.471184124267874 7.76114634134653e-20)
(-0.00114266750607505 0.408278697640214 0)
(-0.000705929480628459 0.802413782246559 0)
(0.00115680186069083 0.788617029562364 -3.27353723492989e-22)
(0.033199202620228 0.587544899783041 -9.27378543834258e-19)
(0.0420694349281339 0.287008286094558 0)
(0.0183510431411597 0.0720137440510291 0)
(0.00299759981659364 0.00894481612243641 7.43041182126985e-20)
(0.00147778803397622 0.00254694735703251 1.22556788486239e-20)
(0.00166065476613461 0.00233296209269772 0)
(0.0010688299282245 0.00140864649511981 -7.30535010449859e-21)
(0.000808751659769654 0.000997492308048631 -9.83509577169701e-25)
(0.000721932427934693 0.000860409250887152 9.49907437820487e-25)
(0.000679209301737431 0.000806770493794787 4.36124902560043e-21)
(0.000671068634859166 0.000808470823364676 4.33363260009049e-21)
(0.000710106147856244 0.000867585314091545 -4.6190404423013e-21)
(0.00080180839392174 0.0009906443163599 -5.24973910193561e-21)
(0.000962635787392588 0.00119876166075074 0)
(0.00122535191164111 0.00153400758135282 1.4955986215712e-23)
(0.00162904940010228 0.00204692181589157 -2.04851623030495e-20)
(0.00221754748476869 0.00279497851780568 -8.01412644873832e-24)
(0.00300289645075888 0.00381839682787953 2.67433790246147e-23)
(0.00396738001156692 0.00515243667785627 -2.70342659314325e-20)
(0.00508111802372296 0.00683183094713237 1.02194080955629e-19)
(0.00625705838688426 0.00884742036337396 -4.53904678986176e-20)
(0.00734694767440837 0.0111309767415737 -1.6120761132714e-19)
(0.00816701210548029 0.0135686106026239 2.30164929876618e-22)
(0.00858587506559898 0.0160589702536205 4.08359239489077e-23)
(0.0085858616776781 0.0185114014713745 7.84729011824953e-18)
(0.00806425910048661 0.020664993323118 8.48848920049827e-18)
(0.00701650947213176 0.0222967676345529 -1.42482560211521e-19)
(0.00559447382486938 0.0234376689641281 -3.14903830118308e-22)
(0.00405035783981405 0.0245988150804012 -2.65633004671556e-20)
(0.00260376735744125 0.0270819792133916 -4.12231728989544e-20)
(0.00134540295604361 0.0334768689968669 -6.90198941264553e-21)
(0.00143773768153024 0.0461196309119785 5.38419140042579e-22)
(0.00155029001576305 0.0600731283855801 2.66339292662636e-17)
(0.00156564867151626 0.0737044271925593 3.27725057262786e-17)
(0.00157170092821303 0.0871183441809097 0)
(0.00156968157087768 0.100241412250659 1.63218754737467e-21)
(0.00156948759387947 0.113130090483446 -1.63218754738312e-21)
(0.0015726981588861 0.12584147752644 0)
(0.00157895480990565 0.138422383471893 0)
(0.00158701142172667 0.150907444986886 0)
(0.00159516890445856 0.163311474756989 0)
(0.00160200559079286 0.175637077221619 0)
(0.00160623858015737 0.187873599384656 0)
(0.0016070436357821 0.20000288606895 0)
(0.00160402540261096 0.212001037221064 0)
(0.00159743814706992 0.223843156783479 -1.9475257980137e-21)
(0.00158798711306963 0.235503305861341 1.94752579803103e-21)
(0.001573570919303 0.246926409884048 0)
(0.00154867944982409 0.258052105664164 0)
(0.00150944039249101 0.268802826369203 -2.38955537049142e-21)
(0.00145906593768987 0.279140329415308 -1.03695127890556e-22)
(0.00140167829354556 0.289031176562031 2.49325049835613e-21)
(0.00133752767158839 0.298440699282577 -1.34396228707839e-21)
(0.001267187905741 0.307338568500463 1.34396228706429e-21)
(0.00119134752719073 0.315698647985 0)
(0.00111074773377469 0.323499154172627 0)
(0.00102617414007762 0.330722736997765 0)
(0.000938435150518801 0.337356459552714 0)
(0.000848343432174568 0.343391695834076 1.57075353401616e-21)
(0.000756698916780821 0.348823961951294 -1.57075353401903e-21)
(0.000664273693368293 0.353652689274311 0)
(0.000571799246030755 0.357880954363753 0)
(0.000479955745683748 0.361515174271809 8.29310663052459e-22)
(0.000389363943069247 0.364564777334607 -8.29310663051064e-22)
(0.000300579184647087 0.367041860826063 0)
(0.000214087407723387 0.368960839672741 0)
(0.000130303218721281 0.370338095285087 0)
(4.95696796491848e-05 0.371191629482038 0)
(-2.7840467581435e-05 0.37154072900683 0)
(-0.000101722252969994 0.371405643371559 0)
(-0.000171935179693581 0.370807280608175 0)
(-0.000238398936048163 0.369766919664534 0)
(-0.000301089523482314 0.368305945773566 -8.33626663515494e-22)
(-0.000360034093101511 0.366445595800329 1.66085646374552e-21)
(-0.000415306175091813 0.364206735143854 -8.27229800228354e-22)
(-0.000467021039093451 0.361609641788562 0)
(-0.00051533211011801 0.358673814732655 -1.60479410603726e-21)
(-0.000560425751761183 0.355417784859274 1.60479410603435e-21)
(-0.000602521470834025 0.351858954402011 0)
(-0.000641862113777172 0.348013400289758 0)
(-0.000678725286095164 0.343895777763555 0)
(-0.000713402816590772 0.339519030192113 0)
(-0.000746228811916558 0.334894401461154 -1.46467462338234e-21)
(-0.000777544163284695 0.330030962953518 1.4646746233974e-21)
(-0.000807754042259639 0.324935780718446 2.81668285111743e-21)
(-0.000837259206660715 0.319613106581173 -5.95036168479747e-23)