/*--------------------------------*- C++ -*----------------------------------*\
| =========                 |                                                 |
| \\      /  F ield         | OpenFOAM: The Open Source CFD Toolbox           |
|  \\    /   O peration     | Version:  4.1                                   |
|   \\  /    A nd           | Web:      www.OpenFOAM.org                      |
|    \\/     M anipulation  |                                                 |
\*---------------------------------------------------------------------------*/
FoamFile
{
    version     2.0;
    format      ascii;
    class       volScalarField;
    location    "30000";
    object      k;
}
// * * * * * * * * * * * * * * * * * * * * * * * * * * * * * * * * * * * * * //

dimensions      [0 2 -2 0 0 0 0];

internalField   nonuniform List<scalar> 
21000
(
3.34116327577541e-05
4.49802054979163e-05
2.8158087547098e-05
1.20839837767056e-06
6.60384033375831e-06
7.4056333649906e-06
3.75329335781998e-06
2.32601422589531e-06
1.72871040693842e-06
1.24394050627552e-06
9.21076078322647e-07
6.64670346007027e-07
5.11649700691297e-07
4.3695494360256e-07
4.16890503701042e-07
4.53065766091372e-07
5.58788416877633e-07
7.54868270192246e-07
1.06058059538511e-06
1.44612109024639e-06
1.88624791559949e-06
2.34108187428402e-06
2.73950821444045e-06
2.99871026221258e-06
3.06159765184942e-06
2.99775177695675e-06
2.85312019083635e-06
2.60085951190106e-06
2.28456197180831e-06
1.97505352403454e-06
1.794384999465e-06
1.56903295014832e-06
2.85261022220185e-06
6.61770784776295e-06
1.074865192191e-05
1.54897287839173e-05
2.01629480341032e-05
2.47832787493218e-05
2.91457425176572e-05
3.32771936078183e-05
3.71314819503065e-05
4.07233154132043e-05
4.4038837896322e-05
4.70774044286619e-05
4.9827146711568e-05
5.22790497948372e-05
5.44209787047694e-05
5.62430584440379e-05
5.77367075701745e-05
5.88966499805341e-05
5.97202944729054e-05
6.02065697633472e-05
6.0353646849644e-05
6.01737644042186e-05
5.96807325880088e-05
5.88916991757404e-05
5.78272696706066e-05
5.65109716638784e-05
5.49686576164681e-05
5.32278759105465e-05
5.13172286548257e-05
4.92657473932115e-05
4.71023036268135e-05
4.48550746006902e-05
4.25510740806076e-05
4.02157581413631e-05
3.78727094349e-05
3.55433996887369e-05
3.32470283569399e-05
3.10004319250839e-05
2.88180568623895e-05
2.67119884349122e-05
2.4692025837299e-05
2.27657960875482e-05
2.09388963064146e-05
1.92150580767033e-05
1.75963257428903e-05
1.60832435097303e-05
1.46750421823478e-05
1.33698299322715e-05
1.2164766267197e-05
1.10562474748297e-05
1.00400488921251e-05
9.1115062524448e-06
8.26560799710862e-06
7.49718482985576e-06
6.80091826263712e-06
6.17159649949805e-06
5.60394362777016e-06
5.09308230812795e-06
4.63400018259752e-06
4.22245982955336e-06
3.85377097028118e-06
3.52469277280427e-06
3.23067278897388e-06
2.97000218254111e-06
2.73776851115022e-06
2.53496844652901e-06
2.35553598520291e-06
2.20609802088347e-06
2.07270423565914e-06
1.9663084349515e-06
1.87371295280544e-06
1.83540303535259e-06
1.78734853031992e-06
1.85046031647321e-06
1.83259643468072e-06
2.10581385611336e-06
2.66792337158381e-06
2.88237436176131e-06
3.11173393709395e-06
3.04269978999456e-06
2.8760895507009e-06
2.5687639746999e-06
2.24499891770073e-06
3.02534126601148e-06
4.49848862496086e-06
6.65327664159989e-06
9.67599008276005e-06
1.36915606297801e-05
1.88036778700236e-05
2.46288395420566e-05
3.04190006329676e-05
3.62559686200287e-05
4.28384136593451e-05
5.03497034957312e-05
6.00613618218485e-05
7.29839799727459e-05
9.49130622316962e-05
0.000132037120944438
0.000188307287886096
0.000273441869807238
0.000407848756187441
0.000614101025388636
0.000870631869293471
0.000910397642425286
0.000553205152969727
0.000230065934846164
6.44600797657388e-05
2.81666349475005e-05
0.000120571838948281
0.000121225686721144
7.82644672638977e-05
3.01506290284188e-05
7.40190853901062e-06
1.76964373066443e-06
8.34970556107778e-07
6.2441244927001e-07
4.24575333570196e-07
3.12408164182297e-07
2.54217013694485e-07
2.14796112196205e-07
1.98022780924219e-07
2.02042009591749e-07
2.25482188597387e-07
2.73535087914962e-07
3.57379358875354e-07
4.91797145754378e-07
6.93888007254097e-07
9.711140819674e-07
1.33147588156085e-06
1.78138301298729e-06
2.31232135204414e-06
2.89887191559479e-06
3.5052390864538e-06
4.11477351413935e-06
4.71247232229741e-06
5.21869857244937e-06
5.5669944462175e-06
5.76219574294542e-06
5.93384551415955e-06
6.32299134668853e-06
7.8455066279555e-06
1.17860205256953e-05
1.64402029231474e-05
2.13284112777021e-05
2.63205329258716e-05
3.13661262561541e-05
3.64187760319876e-05
4.14875822966305e-05
4.65683130629141e-05
5.16690866083979e-05
5.67867592568543e-05
6.19179967290942e-05
6.70524401361494e-05
7.21778421301916e-05
7.72790480561478e-05
8.23414004090153e-05
8.7351810684161e-05
9.22991637478299e-05
9.71668595360074e-05
0.00010190450746002
0.00010645876449488
0.000110807660841546
0.000114927884878082
0.000118798094516623
0.00012239976985179
0.00012571731440961
0.00012873822874773
0.00013145318594037
0.000133856024865837
0.000135943672969737
0.000137716002343674
0.000139175633300578
0.00014032769392031
0.000141179546836052
0.000141740496240504
0.000142021481947691
0.000142034771878816
0.00014179365978586
0.000141312175826037
0.000140604813947972
0.000139686282126571
0.000138571274063933
0.000137274270142288
0.000135809354811605
0.000134190071362599
0.000132429286995594
0.000130539093546255
0.000128530706452535
0.000126414412941243
0.000124199472175925
0.000121894144022782
0.000119505498131621
0.000117039618792869
0.00011450117678505
0.000111893941414561
0.000109219874217346
0.000106480279755023
0.000103674007640839
0.000100799726886304
9.7852051560445e-05
9.4827268777711e-05
9.17139952433904e-05
8.85064426476039e-05
8.51838366933581e-05
8.17409012031431e-05
7.81409356152532e-05
7.43868389446963e-05
7.0412588100777e-05
6.6279302086023e-05
6.19310587135782e-05
5.73953883609179e-05
5.2452381143396e-05
4.73174963862473e-05
4.16696789860815e-05
3.58247557610009e-05
2.96441898674971e-05
3.18528878576013e-05
3.69609285914711e-05
4.38338426801532e-05
5.07407388899707e-05
5.75177268253587e-05
6.3984437957922e-05
7.03494867109279e-05
7.7526986804948e-05
8.48842283273762e-05
9.19175296776711e-05
9.85959333148109e-05
0.000104822275432009
0.000110476830872147
0.000114295394076556
0.000115939378676288
0.000116662969567445
0.000117386318654701
0.000118546179951817
0.000121164281988816
0.000126141209379648
0.000138112318298368
0.000158121425844316
0.000187520101927812
0.000230728405885747
0.000296335429326232
0.000391641025961874
0.000495584086402524
0.000493493152438564
0.000367281716372962
0.000233552288832083
0.000142469131934992
0.000119792443191496
0.000850148280352187
0.000840381528124414
0.000557726105202489
0.000229449063644449
5.04501662969714e-05
6.02051793747435e-06
2.29851673331711e-06
2.21429576515218e-06
1.37014480851644e-06
1.02951565419535e-06
9.29492839047358e-07
9.02274604296366e-07
9.36546913471655e-07
1.0426238659497e-06
1.23522296209099e-06
1.55078162403578e-06
2.05773172492034e-06
2.84347033683123e-06
4.01404274472023e-06
5.65586227480426e-06
7.85470376392732e-06
1.0699476743056e-05
1.42031854172788e-05
1.82667092359388e-05
2.26872912277434e-05
2.72705797493872e-05
3.1849127217845e-05
3.59018718513667e-05
3.88605684759639e-05
4.06659500384328e-05
4.21493593880894e-05
4.55328973929603e-05
5.62137723311891e-05
8.15594934328681e-05
0.000111480918539506
0.000142276266409199
0.000173751073006025
0.000205533115233229
0.000237540945313208
0.000269818554118905
0.000302397475237721
0.000335321696207611
0.000368587615506985
0.000402172492481768
0.000436017211330752
0.000470045428622568
0.000504164652489203
0.000538283522044797
0.000572321206932167
0.000606207862659062
0.000639852254975159
0.000673137552250609
0.000705493860775451
0.000736721672532636
0.000766649803306816
0.000795113705151681
0.000821964660361704
0.000847071018839889
0.000870319951911397
0.000891618578724213
0.000910894557286349
0.000928096188391155
0.000943192041988736
0.000956170180526614
0.000967037024935725
0.000975815927395897
0.000982545532844464
0.000987277972797564
0.000990076968171055
0.000991015890833249
0.000990175840716705
0.000987643772315451
0.000983510720236057
0.000977870122653487
0.000970816305665604
0.000962443048526249
0.000952842381994745
0.00094210344272983
0.000930311563136055
0.000917547345928111
0.00090388608052253
0.0008893968281658
0.000874142413904251
0.00085817789734063
0.000841551795791499
0.000824302954401665
0.000806463902102986
0.000788054449188465
0.00076908941830424
0.000749566279616902
0.000729480324886414
0.00070879831277204
0.000687497129501507
0.000665500203370925
0.00064276704901975
0.000619153803673735
0.000594619174961021
0.000568905775822642
0.000542022483728734
0.000513502284432269
0.000483856959782588
0.000452828308568747
0.000420283646621288
0.000384833730922141
0.000347676938694101
0.000306868364055899
0.000264204199832402
0.000219187291712344
0.000233501687216399
0.000270589544352599
0.000321077920669501
0.000372110090065974
0.000422218961396409
0.000470221836953753
0.000517578779456792
0.000569533874010137
0.000621781696787056
0.000670817182220615
0.000716272280909984
0.00075730804960849
0.000792760012025792
0.000814092281648654
0.000820077739156104
0.00081971100434537
0.000818737196081611
0.000820177495145362
0.000830175697517117
0.000854682312409575
0.000920776635594935
0.00102885118747727
0.00118430942869471
0.00140797323611859
0.00173648413246734
0.00218831774585023
0.00262713248901708
0.00254786712043107
0.00206058215268898
0.00148418613230106
0.00100691209759183
0.000857901136055924
0.00304379388235657
0.00299438465076252
0.00206218672817438
0.000894209191322585
0.000204185419213308
2.46355600021245e-05
8.36854017678651e-06
8.1315017745023e-06
5.04981690987258e-06
3.77350755008699e-06
3.41869639762133e-06
3.34469222814813e-06
3.4894144448313e-06
3.89299966235808e-06
4.61424922614265e-06
5.78793412460353e-06
7.6678746296139e-06
1.05787946546678e-05
1.49172590102935e-05
2.1014550314557e-05
2.91931626127093e-05
3.97867446624811e-05
5.28542481276597e-05
6.80389489304513e-05
8.45946983669006e-05
0.00010178081540639
0.000118947259945899
0.00013415694696204
0.00014544648284779
0.00015261409037696
0.000158892664520607
0.000172882120572108
0.000214031678239455
0.000305516958082237
0.000411271513912718
0.000518163568777199
0.000626024805329649
0.000733747022202942
0.000841331272199357
0.000949026882082465
0.00105705151146535
0.00116560531924705
0.00127473503940739
0.00138440777399424
0.00149447525300094
0.00160472860852544
0.00171490651354802
0.00182474587101455
0.00193402023053845
0.00204256323033878
0.00214986018259641
0.00225498892663401
0.00235690362623928
0.00245512272306935
0.00254916580646155
0.00263858563851156
0.00272298051888841
0.00280199765254829
0.00287533700607632
0.00294275354380152
0.00300405811766534
0.00305911716204221
0.00310785125206836
0.00315023272624772
0.00318628249424229
0.00321606619067408
0.00323968987091272
0.00325729534406514
0.00326905531943
0.00327516847589334
0.0032758545790934
0.0032713497187503
0.00326190177535581
0.00324776610997437
0.00322920161910868
0.00320646695560128
0.00317981729175428
0.00314950119459147
0.00311575802537408
0.00307881530647729
0.00303888683647002
0.00299617002892232
0.00295084537220202
0.0029030722019264
0.00285299097756244
0.00280071520675601
0.00274633859039213
0.00268991906047671
0.00263149534767018
0.00257105876875028
0.0025085833726023
0.00244396780540813
0.00237711659882966
0.00230779781870831
0.00223583618328415
0.00216079918899284
0.00208245295221132
0.00200003459925471
0.00191334973597826
0.00182103435124516
0.00172401205381802
0.00162163561157904
0.00151322548453965
0.00139469908306376
0.00126862942135844
0.00112957044269045
0.000981091480421061
0.000823799458443047
0.000867043524471964
0.000995047538639186
0.00116796008714316
0.00134291196133006
0.00151442682468981
0.00167935400044376
0.00184282069380119
0.00202024614273653
0.00219879808452633
0.00236747133443264
0.00252441528873094
0.00266675925437998
0.00279008004972102
0.00286866539245899
0.00289821001825261
0.00290581774772958
0.00291004525727254
0.00292182455075623
0.00296084112905169
0.00304845050969758
0.00326795764634528
0.00361956594864024
0.00411367200807678
0.0048007388553654
0.00576123223101993
0.00700248826223851
0.0081537025302003
0.00795128243335487
0.00657648060343586
0.00495699864013885
0.00357211984857852
0.00309121151399581
0.00685256386059224
0.00674187760144627
0.00496936895370335
0.00240404374467319
0.000605221787607704
7.67388852962966e-05
2.30556516339765e-05
2.19742156423836e-05
1.38228468984646e-05
1.02429903319909e-05
9.23061102470771e-06
9.01792514798184e-06
9.39435798006698e-06
1.04599402239405e-05
1.2370799183692e-05
1.54824116658666e-05
2.04638342642623e-05
2.81694992472732e-05
3.96344935402598e-05
5.57114893378581e-05
7.71969193499942e-05
0.000104880068758047
0.000138819688834766
0.000178001010229034
0.000220456253140986
0.000264258662312655
0.000307678277446523
0.000345990963107875
0.000374951457700932
0.000394728243343902
0.00041377292793948
0.00045391910707875
0.000559413717245573
0.00077417140704061
0.00101294966552436
0.0012475977640015
0.00147961497539417
0.00170754255909045
0.00193216209501399
0.00215437665313009
0.00237491961835485
0.00259435277395549
0.00281289337782871
0.00303055718295818
0.00324712572411689
0.00346225168853101
0.00367548625759021
0.00388636729652375
0.00409442687610397
0.00429876360198854
0.0044983830814874
0.00469201876829638
0.00487854028892736
0.0050572544292054
0.00522747595190469
0.00538859121265472
0.0055400648869665
0.00568144351320221
0.00581235839139287
0.0059325263517279
0.00604174877896997
0.00613990916932666
0.0062269693557813
0.00630296469673507
0.00636799840061513
0.00642223520029472
0.00646589462710648
0.00649924398941597
0.00652259126589125
0.00653627803613515
0.00654067258616955
0.00653616326247058
0.00652315219137328
0.00650204934353448
0.00647326709975347
0.00643721504490805
0.0063942954619167
0.00634489898715738
0.00628940086059513
0.00622815719676816
0.00616150201857708
0.00608974342299587
0.0060131621404697
0.0059320056949474
0.00584648979883779
0.00575678820706852
0.00566303851966081
0.00556532380511337
0.00546368571280957
0.00535809591628791
0.00524847761403764
0.00513464697434038
0.00501638321671294
0.00489328324202744
0.00476493791709827
0.00463060962299418
0.00448967144248637
0.00434084606718295
0.00418331630500617
0.00401484556445705
0.00383540344597888
0.00364349896017438
0.00343743099660631
0.00321046262500144
0.00296373638394649
0.00268835175987623
0.00238364437168087
0.00205489301419183
0.00211982261611823
0.00237468125672944
0.00271874313116695
0.00307005007066084
0.0034166267509201
0.00375444572613362
0.00409357228239547
0.00445900107576756
0.00483041375312509
0.00518790723412156
0.00552576890622782
0.00583776973651269
0.00611442675505303
0.00631254617530847
0.00642172440337301
0.00648586723978918
0.0065393721858134
0.00660563090008611
0.00672173362546791
0.00693221659743006
0.00738609202825354
0.00808715103824021
0.00903991727410238
0.0103064020741435
0.0119803904895848
0.0140258351759607
0.0159025091838198
0.0157722918959311
0.0133669593953387
0.0103331778191551
0.007825591709567
0.00694726134497264
0.011159562279774
0.0109986170122301
0.00874741036108196
0.00488243229465402
0.00146012678205353
0.000201133640183745
5.273278477493e-05
4.85262234764518e-05
3.10076924621506e-05
2.27542976701218e-05
2.03540997813834e-05
1.98325297096674e-05
2.06224574412349e-05
2.2914993184529e-05
2.70433277758197e-05
3.37696801655736e-05
4.45161462062826e-05
6.1076606425183e-05
8.55639701035976e-05
0.000119623227917711
0.000164647790864691
0.000221846320710069
0.000290807363137695
0.000368953944802309
0.00045205095257835
0.000536204106735885
0.00061804296678406
0.000689588783069501
0.000744915060427036
0.000786394546785138
0.000830862619148769
0.000918360157869244
0.00112009711325652
0.00149215287137096
0.00188919853245323
0.00226996072222807
0.0026394822767178
0.00299685748822948
0.00334428335484175
0.00368369434825408
0.00401661013153555
0.00434413967735958
0.00466684243184018
0.00498493850632492
0.00529830887219166
0.00560664133199852
0.00590947236616631
0.00620624682475246
0.00649612478413133
0.00677812523327131
0.00705113664570915
0.00731399472674266
0.00756574526760303
0.00780568129089431
0.00803312473293808
0.00824748319418407
0.00844825289221198
0.00863502246736279
0.00880747518795123
0.00896538906610978
0.00910863518115213
0.00923717449809911
0.00935105332725887
0.00945039772144867
0.00953540698782251
0.00960634653282787
0.00966354030091004
0.00970736291562965
0.00973823173953967
0.00975659898689268
0.00976294403158274
0.00975776599262223
0.00974157671426409
0.00971489413261835
0.0096782361759689
0.00963211492804308
0.0095770315066821
0.00951347118272917
0.00944189902047755
0.00936275569742764
0.00927645386874672
0.00918337392507342
0.00908386171982273
0.00897822259288899
0.00886672081331645
0.00874957092446927
0.0086269382473731
0.00849892556743095
0.00836557642943194
0.00822685552169023
0.00808265222680319
0.00793274141875351
0.00777681484895669
0.00761438249719088
0.00744486405547438
0.007267371666569
0.00708096356470525
0.00688412534184167
0.00667546397561255
0.00645238796668282
0.00621358942237114
0.00595669509402281
0.00567883174606933
0.00537235984643974
0.00503487576215959
0.00465611825718737
0.00422606829515044
0.00375469299705653
0.00379754363239383
0.00413268255526143
0.00460344775697274
0.00509953458789628
0.005599567518334
0.00609827899370386
0.00660778491270296
0.00715610451221844
0.00772038851735829
0.00827469579470675
0.00880827290747748
0.00931117475932369
0.0097692359224511
0.0101308831253836
0.0103799397655095
0.0105661080113487
0.0107342111246285
0.0109190672911834
0.0111708969444301
0.0115544088379613
0.0122593320142826
0.0133010621084055
0.0146744008718171
0.0164342708743541
0.0186671193922546
0.0213085186410191
0.0237676851110832
0.0240159817104336
0.0211288422298565
0.0167359646773681
0.012887703667218
0.0113995519751631
0.0152306957863678
0.0149402860212194
0.0125731186712841
0.0079890430293551
0.0029323547768898
0.000469786028129847
0.000107897582366663
9.35833234118255e-05
6.08830036815243e-05
4.41858838299756e-05
3.9155217336269e-05
3.8021112031032e-05
3.94638136425636e-05
4.37699785745502e-05
5.1547893158969e-05
6.42062512174557e-05
8.43261811023024e-05
0.00011506958982776
0.00015995648293017
0.00022138561179969
0.000300948299585175
0.000399494161620288
0.000514869699968204
0.000641559509064885
0.000772235533653558
0.000901017638291699
0.00102344500889641
0.00113009266782375
0.00121611988890338
0.00128879483471088
0.00137528558897448
0.00153328755050089
0.00185290183001021
0.0023868942981583
0.00293575549480316
0.00345136790387329
0.00394299333704625
0.00441167951915331
0.00486184064573374
0.00529700367464426
0.00571987492246067
0.00613239859401385
0.00653572947507215
0.00693050389304044
0.00731689785858883
0.0076947988025836
0.00806385169893855
0.00842348313429746
0.00877284085107818
0.0091109621094375
0.00943682584106198
0.0097494521042144
0.0100480220283451
0.0103318445245775
0.0106002716137921
0.0108527408324999
0.0110887793714999
0.011308009442974
0.0115101512581213
0.0116950237630871
0.0118625433690421
0.0120127209805812
0.0121456574981651
0.0122615381038043
0.0123606255314679
0.012443252558683
0.0125098140029535
0.0125607583546759
0.0125965792758767
0.012617807122097
0.0126250006426009
0.0126187389588165
0.0125996139425715
0.012568223008048
0.0125251624560636
0.0124710211258628
0.0124063747507212
0.0123317806646049
0.012247772941724
0.0121548579152389
0.0120535100232922
0.0119441673649861
0.0118272287866892
0.011703048106116
0.0115719322011305
0.0114341330182785
0.0112898456016748
0.0111391985627839
0.0109822495956194
0.0108189745221055
0.0106492568163836
0.0104728665322781
0.0102894590117325
0.0100985215505677
0.00989939043024218
0.00969113701191245
0.00947265070934463
0.00924236506709687
0.00899854884085482
0.00873858140304041
0.00846025353838875
0.00816080830671952
0.00783645014307657
0.00747983046004777
0.00708567915821286
0.00664397533859732
0.00613710876907682
0.00557784463667089
0.00556402469962774
0.00591784492159318
0.0064551636272915
0.00704769202026507
0.00766173607568008
0.00828827302388688
0.00893818070356044
0.00963821382323159
0.010365531025692
0.0110908428402846
0.0117988795588974
0.012476405166186
0.0131057479561196
0.0136334294552019
0.0140400377119543
0.0143747829045953
0.0146875836264529
0.0150215569064672
0.0154351261884462
0.0160069662649029
0.016943438336008
0.0182754861668933
0.0199931470699934
0.022139528242367
0.0247859875380941
0.0278465358334763
0.0307185378287914
0.0314025101851681
0.0286315220486568
0.023519688056153
0.0183503709810388
0.0158973463097985
0.0191428129837155
0.0185458860254053
0.0161154547848213
0.011272535601455
0.00498852329943204
0.00100175124919414
0.000207327310323149
0.00016391614158416
0.000108723159387025
7.79491706766896e-05
6.82505152207772e-05
6.5969823655547e-05
6.83344764177785e-05
7.56457821098115e-05
8.88719614334186e-05
0.000110314452510457
0.000144075340266278
0.000194925149995299
0.000267691589483801
0.000364835515332493
0.000486973267325527
0.000633099914870134
0.00079789093203295
0.000972364250385874
0.00114693475396644
0.00131534947898439
0.00147384787946724
0.00161433904754219
0.00173568515048919
0.00185168414388535
0.00199958630686829
0.00224965833382605
0.00269797020767116
0.00337930800825705
0.00405438203628882
0.00467795219233025
0.0052647774373102
0.00581922502620772
0.00634814651648486
0.00685662714788695
0.00734842889496709
0.00782618875523401
0.00829154256418654
0.00874544814018245
0.00918830167368181
0.00962012289434072
0.0100406118391526
0.0104491796733142
0.0108449801720796
0.011227105950166
0.0115946227679847
0.0119466527552266
0.0122824240053891
0.0126012372922694
0.012902447077143
0.0131854929902073
0.013449906343306
0.013695316819837
0.0139214562882029
0.0141281601726917
0.0143153665992547
0.0144831136356359
0.0146315348324012
0.0147608533890452
0.0148713751734086
0.0149634808488882
0.015037617417638
0.0150942893368092
0.0151340494496113
0.0151574899122136
0.0151652332851683
0.0151579239068717
0.0151362196758165
0.0151007842766464
0.0150522799837164
0.0149913608249025
0.0149186664362453
0.0148348163933509
0.0147404048932803
0.0146359960185747
0.014522119158808
0.0143992643977665
0.0142678791516767
0.0141283629140377
0.0139810630382966
0.0138262693417522
0.0136642092267683
0.0134950412535041
0.0133188455976948
0.0131356189955701
0.0129452555750474
0.0127475383774793
0.0125421164138054
0.0123284835299721
0.0121059451263737
0.0118735781908804
0.0116301960571141
0.0113742518693619
0.0111038439273508
0.0108164318410496
0.0105092897855628
0.0101794505130265
0.00982258536340513
0.00943194344953297
0.00900048845112029
0.00851883836117973
0.00796484202158367
0.00735266200560406
0.00727371779073745
0.00761178582896986
0.00817828917595132
0.00883405386853175
0.00953277543635811
0.0102599721643188
0.0110234956543733
0.0118470919283754
0.0127084335775501
0.0135763244128342
0.0144318587790942
0.0152589974276543
0.0160374174956028
0.0167143522154636
0.0172692304137834
0.0177491001457336
0.0182062141706593
0.0186895524399557
0.0192629905548207
0.0200149558925076
0.0211561547984281
0.0227312798156517
0.0247294474324532
0.0271825635091734
0.0301438100321291
0.0335044242013053
0.0366528941660038
0.0376795758351436
0.0352322786200178
0.0300232960982805
0.0240027703998678
0.0205019433668776
0.0230837855492515
0.0220265621906303
0.0194243717168967
0.0144770144294737
0.00744412900139939
0.00191334994907414
0.000384347461890979
0.000267565932572336
0.000180767439741708
0.000127956195264873
0.000110327832294216
0.000105955911361773
0.00010945690956862
0.000120876097303992
0.000141547230598793
0.000174828772277747
0.000226500564837459
0.000302780390354146
0.000409096570416548
0.000546703867987313
0.000713812139843694
0.000906409009892013
0.00111584012478047
0.00133094615867799
0.00154205441195842
0.0017444401150003
0.00193645783312831
0.00211300849062738
0.00227767563361845
0.00245068824541842
0.00267682602427372
0.00303136652271892
0.00360410600872387
0.00440501421627079
0.00517577847292764
0.00588141572864498
0.0065413335384195
0.00716274597799025
0.00775411701353298
0.00832150215076636
0.00886928739099653
0.00940050533161497
0.00991706461306043
0.0104200968342273
0.0109101093285077
0.0113871707164491
0.011850990716543
0.0123009395670474
0.0127362066257452
0.0131559201614143
0.0135591920577269
0.0139451814850107
0.0143131155581806
0.014662272046803
0.0149919899656319
0.0153016945156178
0.015590905855452
0.0158592468060393
0.0161064473886898
0.0163323467204002
0.0165368924886049
0.0167201383345421
0.0168822393773081
0.0170234462168873
0.017144097668976
0.0172446125016945
0.0173254805065076
0.0173872530850655
0.0174305336051416
0.0174559677292478
0.0174642338981006
0.0174560341030651
0.0174320850800788
0.0173931099788089
0.0173398306397473
0.0172729602881863
0.0171931969050397
0.0171012172090542
0.0169976709098751
0.0168831757426838
0.0167583125350638
0.0166236204074686
0.0164795934462209
0.0163266746986834
0.016165251624198
0.0159956521498368
0.0158181377296145
0.0156328990517979
0.0154400435689401
0.015239594049639
0.0150314646095734
0.0148154601214963
0.0145912403087547
0.0143583192937353
0.0141160015325682
0.0138633896408488
0.0135992749464041
0.0133221568878317
0.0130300650963915
0.0127205683512438
0.0123906781985077
0.0120373230525743
0.0116558775518833
0.0112401749380739
0.0107822054470245
0.010273145341025
0.00968849467910318
0.00904309607726043
0.00890348668037776
0.00921075523996115
0.00978531965006846
0.0104829054168304
0.0112460658685379
0.0120542265147958
0.0129113576054865
0.0138375080601724
0.0148106598176754
0.0157983872215321
0.0167788670024961
0.0177336396140346
0.0186402791211729
0.0194476311495009
0.0201352127296725
0.0207478450492967
0.0213388362767429
0.0219614316332461
0.0226835814646916
0.0236010264897194
0.0249236118691897
0.0267061941824086
0.0289383590749785
0.0316422423205616
0.0348517983882147
0.038432683167734
0.0417599062724094
0.0430191250986677
0.0408880152966775
0.0358719571733898
0.0295233767872327
0.0252059518715276
0.0270617979735408
0.0254963521258499
0.0226290156983028
0.0175479990445441
0.0101021285865885
0.00325183242861833
0.000691670599079789
0.000414885544734159
0.000284043694883327
0.000198614739463763
0.000167969236214131
0.000159836223786273
0.000164457158600191
0.000181007229632093
0.000211017724561804
0.000258893876173823
0.00033194199566618
0.000437248379710665
0.00057976035366039
0.000758291324142294
0.000967826263069155
0.00120134976636441
0.00144809639093649
0.00169674733553365
0.00193931175550472
0.00217353005201424
0.00240035562295494
0.0026181180770054
0.00283488442273553
0.00307579740524953
0.00338916828946487
0.0038482286559279
0.00452981062755806
0.00542169525620125
0.00626476579758796
0.0070350024703402
0.00775418895188252
0.00843127531393651
0.00907549073045676
0.00969337363742047
0.0102896167125688
0.0108674508315918
0.0114289244741145
0.0119752539297391
0.0125069947167077
0.0130242242071719
0.013526628934883
0.014013567688427
0.0144842533234086
0.0149378291429823
0.015373421780336
0.0157901907663932
0.0161873404637242
0.0165641185435994
0.0169198392333732
0.017253904903566
0.0175658167615005
0.0178551834168222
0.0181217260804588
0.0183652809224959
0.0185857988287599
0.0187833428920643
0.018958083891624
0.0191102941130043
0.0192403397844391
0.0193486724135294
0.0194358193806165
0.0195023739946617
0.0195489852756541
0.0195763476887611
0.0195851910260394
0.0195762705856699
0.0195503577875729
0.0195082312957931
0.0194506687825169
0.0193784391687908
0.0192922955242026
0.0191929687227179
0.0190811612854281
0.0189575422055413
0.0188227417111686
0.0186773464296831
0.0185218957728916
0.0183568751331246
0.0181827122609172
0.0179997733215542
0.0178083550055439
0.0176086815536592
0.0174008907996906
0.0171850347516208
0.0169610534046823
0.0167287787482664
0.0164878918672253
0.0162379349898428
0.015978230158218
0.0157079161623898
0.0154257957789118
0.0151304267601646
0.0148198335979792
0.0144917006386964
0.0141429357758199
0.013770444675799
0.013369457534428
0.0129343034457942
0.0124565141856884
0.011927665621678
0.0113223096739707
0.010655645023168
0.0104635175240349
0.0107345782977953
0.0113049664866946
0.0120299465605504
0.0128430817953168
0.0137177445366048
0.0146536454260143
0.0156668552959486
0.016735295852882
0.0178256123160801
0.0189135834803664
0.0199786301855435
0.0209966183271862
0.0219183106394859
0.0227240408697232
0.0234567427444607
0.0241701913360294
0.024920857849997
0.0257800049709011
0.0268491363935987
0.028334972867086
0.0302990927656564
0.0327314926269787
0.0356453543287449
0.0390547344379137
0.042797176180597
0.0462305082275627
0.047630109540262
0.0457513615281946
0.0410097561124478
0.0346637862543698
0.029842825782952
0.0309830423128111
0.0289517298536895
0.0257999359172925
0.0205285055202863
0.0128301735577151
0.00497932823773277
0.00119611278388582
0.000620362354140975
0.000425905053512155
0.000294872344693789
0.000243612455062705
0.000228843254713733
0.000234060241612496
0.000256437512811532
0.000297264661642617
0.000361770926224696
0.00045837842929071
0.000594267436683247
0.000772877175329655
0.000989844167165255
0.00123694760772462
0.00150506333128547
0.00178294362085967
0.00206064655693378
0.00233264014230824
0.00259925619980608
0.00286396236908695
0.00312823718236082
0.00340364188842088
0.00371803499611672
0.00411950982851389
0.00467505738514797
0.00544758492214947
0.00640906835449291
0.00730981456761432
0.00813416553725623
0.00890445407542312
0.00963052516838285
0.0103218404479233
0.0109851390792815
0.0116252419054655
0.0122454728794708
0.0128479496506074
0.0134339277675158
0.0140039794686791
0.0145581763272162
0.0150961750129475
0.0156173402858861
0.0161208921301763
0.0166059735753152
0.0170717054786812
0.0175172280179986
0.0179417129555694
0.0183443741905944
0.0187244960642332
0.0190814535834211