/*--------------------------------*- C++ -*----------------------------------*\
| =========                 |                                                 |
| \\      /  F ield         | OpenFOAM: The Open Source CFD Toolbox           |
|  \\    /   O peration     | Version:  4.1                                   |
|   \\  /    A nd           | Web:      www.OpenFOAM.org                      |
|    \\/     M anipulation  |                                                 |
\*---------------------------------------------------------------------------*/
FoamFile
{
    version     2.0;
    format      ascii;
    class       volScalarField;
    location    "30000";
    object      nut;
}
// * * * * * * * * * * * * * * * * * * * * * * * * * * * * * * * * * * * * * //

dimensions      [0 2 -1 0 0 0 0];

internalField   nonuniform List<scalar> 
21000
(
6.7290737326565e-09
9.06330989398333e-09
5.66198148254655e-09
2.39114966556918e-10
1.24514148906305e-09
1.30127492786199e-09
6.31104239454786e-10
3.88187356231833e-10
2.95662814515555e-10
2.23497281482303e-10
1.77386658695469e-10
1.39541866653093e-10
1.18200196697749e-10
1.10528212031465e-10
1.14701799346827e-10
1.34769083300615e-10
1.78709916273557e-10
2.58247744387586e-10
3.86386400374989e-10
5.61135466614668e-10
7.8309743680595e-10
1.04433369293723e-09
1.31807937025954e-09
1.56112013180732e-09
1.72857161389565e-09
1.83422826729301e-09
1.87935573165141e-09
1.82833551731357e-09
1.69642267230041e-09
1.53064401038367e-09
1.43135125105359e-09
1.268316636549e-09
2.3011451232341e-09
5.33120755563538e-09
8.65906493721904e-09
1.24784217442649e-08
1.62430934268036e-08
1.99651396004235e-08
2.34794356606748e-08
2.68076176493761e-08
2.99125111815948e-08
3.28059672673929e-08
3.54768265258828e-08
3.79245718712273e-08
4.0139645005608e-08
4.21147860533064e-08
4.38402216444482e-08
4.53079987728657e-08
4.65112062472712e-08
4.74455952433881e-08
4.8109079473345e-08
4.85007967170554e-08
4.86192740725553e-08
4.84743704892533e-08
4.80772105353849e-08
4.74416071363102e-08
4.65841583869139e-08
4.55238161317527e-08
4.42814049448961e-08
4.28791155482211e-08
4.13399875530956e-08
3.96874066143688e-08
3.79446296160064e-08
3.61343543617537e-08
3.42783416049073e-08
3.23970974910296e-08
3.05096192091481e-08
2.86332036526605e-08
2.67833174187158e-08
2.49735237190963e-08
2.32154605606568e-08
2.15188639250745e-08
1.98916282626173e-08
1.83398982147256e-08
1.68681832057694e-08
1.54794898256884e-08
1.41754654466498e-08
1.29565489320473e-08
1.18221210604352e-08
1.07706581961799e-08
9.79987243228518e-09
8.90686097916379e-09
8.08822077452727e-09
7.3401945757017e-09
6.65874532690231e-09
6.03970886547624e-09
5.47880080945464e-09
4.97182269932906e-09
4.5145243988871e-09
4.10297683920658e-09
3.73314216265077e-09
3.4016067815479e-09
3.10459227522958e-09
2.83948788154597e-09
2.60262619548905e-09
2.39263061053154e-09
2.20554369736615e-09
2.04216839058594e-09
1.89761794512565e-09
1.77723098658231e-09
1.66976917321823e-09
1.58405688016054e-09
1.50946209416561e-09
1.47859967802189e-09
1.43988703382603e-09
1.49072980287919e-09
1.47633868437748e-09
1.69871974577939e-09
2.15659557106571e-09
2.29922099489326e-09
2.41155692378956e-09
2.25938405510735e-09
2.02181469101078e-09
1.69204996767648e-09
1.373643349275e-09
1.70810135874889e-09
2.34189926187235e-09
3.20113485288469e-09
4.31635459646615e-09
5.68418895313501e-09
7.29631930904777e-09
8.97262498406603e-09
1.04065613581698e-08
1.1595175531004e-08
1.27426163130355e-08
1.38529097476546e-08
1.51924255474787e-08
1.68604037838069e-08
1.9925913766572e-08
2.5428098510248e-08
3.38321527783766e-08
4.67654878072813e-08
6.80624790432995e-08
1.0325176363685e-07
1.52966278609876e-07
1.71633439967899e-07
1.09458608558616e-07
4.62599726621981e-08
1.29883819060591e-08
5.67273990141899e-09
1.40511244317371e-07
1.41415040697931e-07
8.98129802677377e-08
3.40766294373219e-08
8.06232539933846e-09
1.81090832577185e-09
8.17881429302964e-10
6.06350093534483e-10
4.22142923418959e-10
3.26056668025962e-10
2.84194601338123e-10
2.61595825205473e-10
2.65284616482764e-10
2.96359269223079e-10
3.59709320847856e-10
4.71662243733351e-10
6.62359959912527e-10
9.74681660937736e-10
1.46397549873527e-09
2.18137356859613e-09
3.19861405313618e-09
4.59695390465647e-09
6.4354631822889e-09
8.73114420511823e-09
1.14532394785985e-08
1.45744660121224e-08
1.79780094273641e-08
2.12530786590855e-08
2.39516865521361e-08
2.58706402593231e-08
2.74076736129538e-08
2.94876730892752e-08
3.61373470179236e-08
5.4204946028318e-08
7.57074171806326e-08
9.83358485888531e-08
1.21474062075339e-07
1.44888567355737e-07
1.68344341205086e-07
1.91885799714494e-07
2.15489060415833e-07
2.39196811210462e-07
2.62996613902898e-07
2.8687822752674e-07
3.10797223788093e-07
3.34701028015263e-07
3.58522405472046e-07
3.82196036111462e-07
4.05662859930371e-07
4.28872584021272e-07
4.51746166747105e-07
4.73997176322276e-07
4.95370627267294e-07
5.15807633253355e-07
5.35204282510465e-07
5.53458451304347e-07
5.70480694588665e-07
5.86194748045159e-07
6.00538459563973e-07
6.13464269984261e-07
6.24939308737854e-07
6.34945155169877e-07
6.43477277148585e-07
6.50544210361479e-07
6.56166515086578e-07
6.60375561248792e-07
6.63212202934058e-07
6.64725374206451e-07
6.64970661170767e-07
6.64008883766063e-07
6.61904725516436e-07
6.58725431702009e-07
6.54539607520775e-07
6.4941611061872e-07
6.4342307907505e-07
6.36627032767925e-07
6.29092152927582e-07
6.20879608292855e-07
6.1204705498358e-07
6.02648124714115e-07
5.92732158012284e-07
5.82343697394368e-07
5.71522619508594e-07
5.6030318588694e-07
5.48715043115154e-07
5.36781119304332e-07
5.24520134627922e-07
5.11942170296109e-07
4.99054320139344e-07
4.85851861783387e-07
4.72329511994976e-07
4.58462391242247e-07
4.44234159500197e-07
4.29591313653594e-07
4.14508249359905e-07
3.9888646452806e-07
3.82704036332754e-07
3.65785788557563e-07
3.48151246622939e-07
3.2948342015618e-07
3.10054365873095e-07
2.89550716338042e-07
2.68217846233543e-07
2.44927436640688e-07
2.20848063084629e-07
1.94276884570635e-07
1.66968485461327e-07
1.37936988131659e-07
1.48990152158569e-07
1.70837900461468e-07
1.96987453819861e-07
2.18579697197069e-07
2.34646637835982e-07
2.44653817347519e-07
2.49929169745878e-07
2.542704716017e-07
2.5682253448784e-07
2.57103647894121e-07
2.55743821738425e-07
2.53055275325366e-07
2.4924990443446e-07
2.41987255540307e-07
2.30346723631973e-07
2.16564079818982e-07
2.02590388878936e-07
1.89175799852395e-07
1.77735668650358e-07
1.69001775901332e-07
1.68288584170415e-07
1.76837216155488e-07
1.95699231727741e-07
2.29228248960896e-07
2.87183093996407e-07
3.81662643551586e-07
5.01224029215047e-07
5.25200409862571e-07
4.01808990220639e-07
2.6041221798109e-07
1.6116033628504e-07
1.38705664820441e-07
2.86177625919185e-06
2.84836107198696e-06
1.90315344393663e-06
7.80446941460946e-07
1.65286412448884e-07
1.84527517428363e-08
6.77563946087731e-09
6.46060113807203e-09
4.08853754006573e-09
3.22259882079149e-09
3.11468236230606e-09
3.29199162160512e-09
3.75674564119451e-09
4.5776331681609e-09
5.89938449759376e-09
8.00822968498797e-09
1.14254967935093e-08
1.68891174279549e-08
2.53863127736448e-08
3.80832574700099e-08
5.65561938120632e-08
8.27359661674865e-08
1.18401849033701e-07
1.64690358936154e-07
2.21728742244826e-07
2.88694993973897e-07
3.62808227083676e-07
4.36727508772055e-07
4.99195028947285e-07
5.44137591657814e-07
5.77877844580694e-07
6.3023578566818e-07
7.76006068973932e-07
1.12308090223124e-06
1.53209988042415e-06
1.95182138346229e-06
2.38040999946195e-06
2.8130332476547e-06
3.24896403711473e-06
3.68906161780882e-06
4.13403751413111e-06
4.58471863378419e-06
5.04128053439126e-06
5.50360651846423e-06
5.97106680848233e-06
6.44276622436553e-06
6.91756105045101e-06
7.39428644521279e-06
7.871866740721e-06
8.34926557843422e-06
8.82545922522532e-06
9.30521872823154e-06
9.77523386205118e-06
1.02316675878972e-05
1.06719516906538e-05
1.10934633913835e-05
1.14937724025934e-05
1.18706636074096e-05
1.22221726078105e-05
1.25466121878814e-05
1.28425906073693e-05
1.3109022156677e-05
1.33451297444506e-05
1.35504404423226e-05
1.37247745085582e-05
1.38682287530308e-05
1.39811555016262e-05
1.40641378286463e-05
1.41179623169199e-05
1.41435902037976e-05
1.41421279263427e-05
1.41147977058831e-05
1.40629091124108e-05
1.39878316734128e-05
1.38909697286089e-05
1.37737382645817e-05
1.36375423576937e-05
1.34837573780461e-05
1.33137130623364e-05
1.31286772308569e-05
1.29298453779188e-05
1.27183246610297e-05
1.24951332526219e-05
1.22611746317002e-05
1.20172575506162e-05
1.17640446842323e-05
1.15021078992752e-05
1.12318245504568e-05
1.0953505088562e-05
1.06671902735116e-05
1.03729062891558e-05
1.00702317656328e-05
9.75893663927331e-06
9.43794431012866e-06
9.10680672777922e-06
8.76342313255276e-06
8.40742220966934e-06
8.03495602086826e-06
7.64658523877204e-06
7.23520387170097e-06
6.81095143570078e-06
6.37103717303578e-06
5.91019124973641e-06
5.40935197018895e-06
4.88453578509635e-06
4.30963380180355e-06
3.70702700169767e-06
3.07470075816121e-06
3.27879133466126e-06
3.7551375524506e-06
4.3461496867541e-06
4.83878174996647e-06
5.20814759459053e-06
5.44294745916644e-06
5.57203100527345e-06
5.66719662924982e-06
5.71123622129911e-06
5.69624868715866e-06
5.63750471479734e-06
5.54216792666279e-06
5.41384661652569e-06
5.20411794539603e-06
4.90550114635496e-06
4.5710174167082e-06
4.23710819101454e-06
3.91920442667179e-06
3.64372971584109e-06
3.42623494314354e-06
3.3627281128713e-06
3.45153943003274e-06
3.70754275740628e-06
4.1955235452209e-06
5.04725989741971e-06
6.38424332689363e-06
7.86076515034575e-06
7.84308588114027e-06
6.52815608487292e-06
4.7614878068856e-06
3.28530857855644e-06
2.84573229381269e-06
1.95741432240959e-05
1.98785059280347e-05
1.37350386920329e-05
6.00089897761455e-06
1.38443532575878e-06
1.61857886426959e-07
5.3605536637142e-08
5.14834289201427e-08
3.26485137772269e-08
2.55749367104449e-08
2.47907885449225e-08
2.63892070712555e-08
3.02347431855357e-08
3.68804883539643e-08
4.7505578089291e-08
6.43484522511514e-08
9.15244090949323e-08
1.34851889434392e-07
2.02198922001563e-07
3.02975918305184e-07
4.49755017265425e-07
6.58104036189875e-07
9.42676799137267e-07
1.3130376302274e-06
1.76986389760358e-06
2.30470437658278e-06
2.8949539313826e-06
3.47937113607365e-06
3.96785601175443e-06
4.30369704620867e-06
4.53832863838971e-06
4.90316922157001e-06
5.97953334716999e-06
8.52907568001374e-06
1.1520982738152e-05
1.45740010958975e-05
1.76846253931687e-05
2.08195487556883e-05
2.39774987158787e-05
2.71662333513118e-05
3.03927287561565e-05
3.36640872512509e-05
3.69826190916778e-05
4.03481736066644e-05
4.37566832618683e-05
4.72018465574501e-05
5.06751898610408e-05
5.4167510928777e-05
5.76700805830621e-05
6.11791880344515e-05
6.47116228211744e-05
6.82358880453878e-05
7.16856930631288e-05
7.50404798714478e-05
7.82812783586517e-05
8.13894807329072e-05
8.43479016495675e-05
8.71409346115098e-05
8.97547735411993e-05
9.21775681887011e-05
9.4399523158803e-05
9.64129453589211e-05
9.82122405525813e-05
9.97938664908044e-05
0.000101156247033542
0.000102299653445461
0.000103226061154209
0.000103938986019417
0.000104443307734928
0.000104745085270722
0.000104851370077359
0.000104770020452227
0.000104509522307758
0.000104078816281053
0.000103487138206329
0.000102743864431462
0.000101858378605372
0.000100839941868894
9.96975853191959e-05
9.84399995159521e-05
9.70754581154381e-05
9.56117062152682e-05
9.40559427152149e-05
9.24146453459738e-05
9.069367725039e-05
8.88979522284332e-05
8.70317555770909e-05
8.5098079882058e-05
8.30993772419661e-05
8.10363273015702e-05
7.89092778794144e-05
7.67156670109944e-05
7.44537626996774e-05
7.21163794671644e-05
6.96996812086087e-05
6.71892723348392e-05
6.45807173135872e-05
6.18474516102857e-05
5.89894435626034e-05
5.59573591051966e-05
5.28151899825071e-05
4.95497506941997e-05
4.61151663505284e-05
4.23761782383986e-05
3.84288849431197e-05
3.40955233215082e-05
2.9502803514897e-05
2.46785719679651e-05
2.61903418928571e-05
2.99339236077451e-05
3.45193870889315e-05
3.83369983092037e-05
4.11839921731018e-05
4.30032120775657e-05
4.40208351419559e-05
4.47521711328132e-05
4.50617311102513e-05
4.48958490994275e-05
4.43711674474014e-05
4.35429681147886e-05
4.24284725451702e-05
4.06778844002017e-05
3.82686199722236e-05
3.56136409215729e-05
3.29795004992842e-05
3.04849532428948e-05
2.83259656671994e-05
2.66367041486482e-05
2.61101857250195e-05
2.66715866708582e-05
2.83937960110311e-05
3.16974192976156e-05
3.73857903632036e-05
4.60081259721736e-05
5.49496004178305e-05
5.30626860990234e-05
4.23539474594476e-05
3.03019175951444e-05
2.13412237582004e-05
1.89758807006253e-05
6.60748666632461e-05
6.90999875989965e-05
5.04901200262499e-05
2.41409417281286e-05
6.56571539514086e-06
8.85007365113101e-07
2.67628046950593e-07
2.52104328316971e-07
1.61544463604208e-07
1.25369575442413e-07
1.20797391414881e-07
1.28260257991491e-07
1.46443723189106e-07
1.7788346970704e-07
2.28060925216441e-07
3.07240237978631e-07
4.34402233758215e-07
6.36245320077324e-07
9.49197192914288e-07
1.41672966559964e-06
2.09588039569407e-06
3.05755051037947e-06
4.3680240645813e-06
6.06704889792413e-06
8.14541134290832e-06
1.05448161390354e-05
1.31485261620671e-05
1.56484673115014e-05
1.76405547595302e-05
1.88842283244489e-05
1.9630149216663e-05
2.09257903911881e-05
2.52370801824637e-05
3.54903874951645e-05
4.74904355831867e-05
5.96700487116652e-05
7.20032310051767e-05
8.43404210132343e-05
9.66663662234115e-05
0.00010900377401758
0.000121373086680485
0.000133795820406018
0.000146275150517843
0.000158805355956251
0.000171366661422995
0.000183931885782403
0.000196466796089919
0.000208936208002781
0.000221314164650076
0.00023362901907974
0.00024582908222117
0.000257793762097953
0.000269386816348517
0.000280557299340249
0.000291254448083479
0.000301431206713193
0.000311045861572084
0.000320062194579241
0.00032844976661679
0.000336184030786696
0.000343246316208564
0.000349623703578844
0.000355308800206819
0.000360299437599706
0.000364598303736203
0.000368212525259432
0.000371153219165977
0.000373435020576521
0.000375075602500822
0.00037609519605161
0.000376516121480483
0.000376362334672888
0.000375658998631387
0.000374432076533695
0.000372707961358728
0.000370513116503231
0.000367873769420714
0.00036481561034212
0.00036136353984124
0.000357541405930714
0.000353371814698336
0.00034887584777459
0.00034407300564884
0.000338980745278602
0.000333614705152921
0.00032798782742873
0.00032211107339446
0.000315991715978042
0.000309635016581273
0.00030304118419549
0.000296208578048253
0.000289127209251151
0.000281787673763618
0.000274165130264754
0.000266240964817157
0.000257966816795143
0.000249316627739933
0.000240202276766956
0.000230600593534393
0.0002203485557438
0.0002095781299503
0.000198230302782722
0.000186157641236048
0.000172876152147392
0.000158625184840148
0.000142751161247743
0.000125541364212638
0.000107169804257202
0.000112514208447165
0.000126999541072791
0.000144168955092639
0.00015842496385928
0.000168983912970658
0.000175831790061377
0.000179810765192209
0.000182669110981784
0.000183963205976284
0.000183478131683655
0.000181588704890983
0.000178480883524385
0.000174173473240855
0.000167433077814627
0.000158169465384672
0.000147878605676798
0.000137567701922303
0.000127728262178083
0.000119125748563109
0.000112381674985884
0.000110151189189767
0.000112117448523397
0.000118394861300806
0.000130384222187332
0.000150705963937355
0.000180663866519429
0.000210972730334274
0.000202629260447366
0.000156160329745538
0.000105465316509461
7.15308339841355e-05
6.31731485864117e-05
0.000147426206793747
0.000155701062178156
0.00012089067423078
6.30886112531416e-05
2.08165667581804e-05
3.50677153284546e-06
9.90520615646044e-07
9.04474645323113e-07
5.86486755049746e-07
4.50002915594278e-07
4.29900094826344e-07
4.54387540998883e-07
5.16125090270735e-07
6.23252085334359e-07
7.93746002801068e-07
1.06106960627217e-06
1.48738693151164e-06
2.15942705688542e-06
3.1962117556908e-06
4.73783655457268e-06
6.96276965597239e-06
1.00893935448458e-05
1.43077777133957e-05
1.96942803394427e-05
2.61313627966237e-05
3.3332232122469e-05
4.08471480353934e-05
4.76582652277805e-05
5.26340887075143e-05
5.53263665924157e-05
5.6810539029063e-05
6.04819563958184e-05
7.30670742762215e-05
0.000101659122289651
0.000134453395088999
0.000167073928330925
0.000199378167952521
0.000230957947869906
0.000261809171611352
0.000292028069092318
0.000321706176693504
0.00035093131921868
0.000379745396780541
0.000408166954376565
0.000436182752755482
0.000463763515773051
0.000490867043554602
0.000517459398020773
0.000543589293035631
0.000569210137121974
0.000594188377361643
0.000618342403433351
0.000641507893324557
0.000663620059322277
0.000684611763600014
0.000704423437173119
0.000723004398221989
0.000740312910687585
0.000756316398049071
0.000770991418441001
0.000784323467809234
0.000796306644239164
0.00080694318420855
0.000816242905180856
0.000824222570176593
0.000830905194986398
0.000836319326361826
0.000840498297213598
0.000843479480968907
0.000845303555710166
0.00084601379168008
0.000845655367277497
0.000844274726253951
0.00084191896950496
0.000838635303332438
0.000834470500949447
0.000829470443622167
0.000823679667732888
0.000817140975718745
0.000809895033756476
0.000801980062012526
0.000793431383300988
0.000784281299770103
0.000774558343851455
0.000764287522158499
0.000753488948611047
0.000742178689189558
0.00073036620562082
0.000718056492626078
0.000705245413061737
0.000691924002382216
0.000678068365612408
0.000663652497578764
0.000648623386131476
0.000632932969345985
0.000616481806293627
0.000599197951744133
0.000580903538127018
0.00056151214810135
0.000540698689196218
0.000518568909362681
0.000495012800844478
0.000469679871149199
0.000441547511389904
0.000410886596103425
0.000376233679843314
0.000337778196045229
0.000295910861512029
0.000305695183545863
0.00033809437760711
0.000376119027364199
0.000408059410859398
0.000431953741585747
0.000448031885308747
0.000458073001555789
0.000465590631706967
0.000469748657875178
0.000469976352086405
0.000466924544878462
0.000460941025363534
0.000451967309394339
0.000437357270855794
0.000416765903982287
0.000393365781929216
0.000369475585166943
0.000346344373457372
0.000325830944031853
0.000309708780750777
0.000304467634378183
0.000309681344074529
0.000325351816603043
0.000354394618651225
0.000402228906105058
0.000470475170578753
0.000538161873185719
0.000522242068524431
0.000409471989385394
0.000272229645802394
0.000174384071386444
0.00014513728076992
0.000270040296312506
0.000279922603770629
0.000226303005087126
0.000125385753784624
4.84680270965457e-05
1.07689089323328e-05
3.02565195924729e-06
2.64223337208134e-06
1.73450839444821e-06
1.31240745977302e-06
1.23945993814655e-06
1.30134459462919e-06
1.4678041799095e-06
1.75859151429875e-06
2.21954509735707e-06
2.93640771118015e-06
4.06953696280025e-06
5.84065235859734e-06
8.55396687333236e-06
1.25567489483568e-05
1.82698174368173e-05
2.61800201634778e-05
3.66301256731817e-05
4.95775095087899e-05
6.44418231119282e-05
8.02909381490737e-05
9.59276704930691e-05
0.000109120480538305
0.000117947244542292
0.000122415273775608
0.000125834638109328
0.000135935985516211
0.00016587895464983
0.000227655504429132
0.000295076983446349
0.000359589183758167
0.000421329705351785
0.000479929950495793
0.000535769141689858
0.000589296084576891
0.00064088900980016
0.000690859029240893
0.000739406836963382
0.000786666828731971
0.000832706017519697
0.000877554425529396
0.000921222162380263
0.000963776624672333
0.00100524318569408
0.00104550440042446
0.00108439562238162
0.00112172001278532
0.001157321753801
0.00119113524124096
0.00122309005795286
0.00125312537718455
0.00128119097538133
0.00130724754035923
0.00133126702686631
0.00135323268764384
0.0013731388650672
0.00139099058949617
0.00140680300194958
0.00142060064779875
0.00143241666315424
0.00144229188179985
0.00145027390137574
0.00145641611655169
0.00146077674841845
0.00146341788483598
0.00146440454938896
0.00146380380621385
0.00146168391661849
0.00145811354016178
0.00145316100742796
0.00144689360796835
0.00143937697702701
0.00143067449457623
0.00142084675067061
0.00140995100797397
0.00139804075395522
0.00138516508804785
0.00137136849395405
0.00135668984053903
0.00134116254637535
0.00132481276623434
0.00130766027875044
0.00128971526165583
0.00127098037376771
0.00125144506639283
0.00123109000161758
0.00120987469106369
0.00118775162978972
0.00116463617756474
0.00114044269254285
0.001115016448822
0.00108822488395024
0.0010597960126112
0.00102955140576974
0.000997002684683105
0.000962132719288099
0.000924737190941383
0.000884268751376266
0.000839136493796954
0.000789445124128241
0.000732851345924122
0.000669018128403332
0.000598596776122939
0.000609126778727215
0.000660932239445103
0.000723400114704759
0.000777380867428875
0.000818815699079056
0.000848030186599792
0.000867719661536705
0.000883172020616022
0.00089322609690614
0.000896774955206079
0.000894599563330498
0.00088717498954789
0.000874271877670007
0.000851665206266605
0.000818571967325945
0.000779993340222252
0.000739897724942697
0.000700614580876342
0.000665441152802279
0.000637950111620592
0.000629773566036551
0.000640955659177342
0.000671178511594015
0.000724816173127522
0.000809997455817132
0.000927296663653022
0.00104080839061668
0.00101927407956046
0.000828234560644685
0.000570973506574466
0.000360415213267474
0.000281375214240366
0.000449810355443903
0.000450234080734038
0.000370784726531905
0.000212333220135352
9.04570208640101e-05
2.64597951582837e-05
8.07646022966843e-06
6.69154913412462e-06
4.44521274829342e-06
3.30648974879074e-06
3.07428139254205e-06
3.19634190337015e-06
3.57088031804559e-06
4.2341888837199e-06
5.28183140617817e-06
6.89747735600946e-06
9.42867517443633e-06
1.33515539969357e-05
1.93117988945472e-05
2.80066275760139e-05
4.02115655967546e-05
5.67170943334074e-05
7.78180199995948e-05
0.000102865572154673
0.000130219300240225
0.000157882221807844
0.000183705334032506
0.000204311157099993
0.000217724839303339
0.000225657808160648
0.000235036287937583
0.00025910518898674
0.000317996516608196
0.000426114913888208
0.000536825039994399
0.00063876270503534
0.000733617852319548
0.000821773700902997
0.000904447348637847
0.000982680158143915
0.00105728897757607
0.00112889646273294
0.00119792355710986
0.00126466112752953
0.00132928799449046
0.00139192161230357
0.00145265780813889
0.00151162340026743
0.0015687633425999
0.00162394862504549
0.00167700435192731
0.00172773910014796
0.00177601281248265
0.00182175864508844
0.00186490430057102
0.00190538834837395
0.00194316119712811
0.0019781858081788
0.00201043827567843
0.00203990798725035
0.00206659746337279
0.00209052193640592
0.00211170869711107
0.00213019626820618
0.00214603343459114
0.00215927816612783
0.00216999648270795
0.00217826127259799
0.00218415110027035
0.0021877490236295
0.00218914144252651
0.00218841698884194
0.00218566547687021
0.00218097690757222
0.00217444055778625
0.00216614408869975
0.00215617276635965
0.00214460870832801
0.00213153018910881
0.00211701096587465
0.00210111967612561
0.00208391906528067
0.00206546562504777
0.00204580840838024
0.00202498888192507
0.00200303903251189
0.00197998192581987
0.00195582812193666
0.00193057730890434
0.0019042121023772
0.00187670179663223
0.00184798902182834
0.00181800302163344
0.00178662771454708
0.00175373670456597
0.00171912161812024
0.00168258269971302
0.00164375934216099
0.00160236595525505
0.00155776776389659
0.00150976919962626
0.00145799961664235
0.00140175495525083
0.00133895639850498
0.00126937332946955
0.0011898968830616
0.00109928255178749
0.000998607876055806
0.00100454225889719
0.00107333945097079
0.00116074454516964
0.00123917912672959
0.00130137432589125
0.00134724464041729
0.00138017163775439
0.00140698132741529
0.00142629999535122
0.00143636767040923
0.00143790184509947
0.00143143523504944
0.00141649066377048
0.00138732564674782
0.00134263685300652
0.00128919641447799
0.00123279422030979
0.00117709548854753
0.00112701320501158
0.00108838191447121
0.00107844435060295
0.0010983464658629
0.0011472931002967
0.00123068549210036
0.00135862058601905
0.00152921942330895
0.00169017016281394
0.00166409421684391
0.00139317923049597
0.0010085001443664
0.000655636818558593
0.000495197845341119
0.000702726719928056
0.00067893077684067
0.000562896641326383
0.000328389777519448
0.00014638316783335
5.27942059367211e-05
1.91199936307949e-05
1.52705286477001e-05
1.02608015077218e-05
7.47886492913183e-06
6.80838044218102e-06
6.97966244721957e-06
7.69847490037636e-06
9.00904256852961e-06
1.10791911431946e-05
1.42536328922251e-05
1.91949044320713e-05
2.67989448999636e-05
3.82440977311041e-05
5.46905516252234e-05
7.72517370728357e-05
0.000106797710763862
0.000143028845597932
0.000184008175429821
0.000226610990922855
0.000267793453129937
0.000304779129844006
0.000333760168800964
0.00035377704543353
0.000369205988783458
0.000391061227494254
0.000437868171233158
0.000535117778494389
0.000695221245782381
0.000850639295431758
0.000990283305076353
0.00111817452628499
0.00123576102120533
0.00134519565499755
0.00144812142121782
0.00154579263970122
0.00163913214568956
0.00172877458193514
0.00181516107292165
0.00189857948595883
0.00197923133099444
0.00205730659059791
0.00213288353962937
0.00220589163130937
0.00227619749202262
0.00234362544865477
0.00240799541424042
0.00246917986976203
0.00252710786442445
0.00258170392571163
0.00263290449408297
0.00268065909667167
0.0027249314827059
0.00276570043327154
0.00280296006031617
0.00283671970187027
0.00286700348879479
0.00289384962196629
0.00291730943147245
0.0029374462558029
0.00295433418454353
0.00296805672504711
0.00297870540796814
0.00298637837413462
0.00299117896819438
0.00299321436497422
0.00299259424220728
0.00298942952069448
0.002983831167328
0.00297590909484196
0.00296577108698958
0.00295352184323529
0.00293926207042475
0.00292308761674621
0.00290508865930233
0.00288534893623265
0.00286394481281674
0.00284094480302537
0.00281640807544508
0.00279038414579936
0.00276291088790253
0.00273401461571503
0.00270370634161564
0.00267198271345665
0.00263881966120264
0.00260417496041765
0.00256797481962541
0.00253012485002123
0.00249047868608036
0.00244886831373815
0.00240503455407011
0.00235870814015883
0.00230944664307148
0.00225685057678499
0.00220015614626397
0.00213896388589454
0.00207269106488177
0.00200047864917807
0.0019198683971958
0.0018301781006844
0.00172768066326151
0.00160995352160489
0.00147872842426969
0.00147513139406447
0.0015569859511997
0.00166820784036972
0.00177230969628112
0.00185774894914058
0.00192334968209412
0.00197283537056555
0.00201424679709937
0.00204608076377693
0.00206585749224556
0.00207404571983125
0.00207114345702259
0.00205635662540451
0.00202255832576139
0.00196791135861297
0.00190083841936891
0.00182903735442778
0.00175772105010616
0.00169354216653401
0.00164492710802315
0.00163473783869515
0.00166570134283444
0.00173647186259633
0.00185299697989941
0.00202645542340178
0.0022512917904689
0.00245810851755238
0.00242706596618227
0.00207674100327726
0.00156627334468388
0.00106480449587192
0.000802271549762472
0.00103636787037904
0.000974774532717769
0.000811541713445356
0.000481866626204237
0.000217147719646284
8.91929279336473e-05
3.95042419050879e-05
3.20503141009122e-05
2.18606043702833e-05
1.55777505489637e-05
1.37960009118263e-05
1.38702940891637e-05
1.5049462230988e-05
1.73352466571345e-05
2.09798917777014e-05
2.65716215111143e-05
3.52560070267026e-05
4.85456938869578e-05
6.83195051938999e-05
9.61695084009426e-05
0.000133258227580127
0.00017998581866691
0.000234760940314715
0.000293933113034359
0.000353011289693618
0.000408400251417939
0.000457344585393682
0.00049646447072232
0.000526554405282568
0.000554870279922444
0.0005960236843906
0.000672506897142373
0.000812623255397989
0.00102382660131335
0.00122185144187311
0.00139770473319731
0.00155760031357343
0.00170397234562053
0.00183979505413252
0.00196722658499014
0.00208790366242875
0.00220301013785092
0.00231337026984298
0.00241955888527745
0.00252196361529304
0.00262086377836798
0.00271648965657581
0.00280887985602404
0.00289796603437179
0.00298361454067067
0.00306565388681651
0.00314391597662148
0.00321828130381875
0.0032886730053717
0.00335501143793602
0.00341722976545098
0.00347527551248246
0.00352911209930549
0.00357871987324225
0.00362409654367056
0.00366525713448189
0.00370223354253314
0.00373507375184952
0.00376384078602918
0.00378861144497579
0.00380947487624499
0.00382653105159295
0.00383988916778535
0.00384966601952384
0.0038559843754939
0.00385897138722796
0.00385875704793273
0.00385547272427422
0.00384924975897492
0.0038402181801537
0.0038285054438146
0.00381423529704944
0.00379752671556037
0.00377849285812219
0.00375724011637208
0.00373386717463156
0.00370846393652092
0.00368111084450082
0.00365187711792957
0.00362082038353201
0.00358798447368576
0.00355339902258827
0.00351707567675643
0.00347900819812557
0.00343916617693188
0.00339749611412779
0.00335390850012001
0.00330828564745822
0.00326045230506307
0.00321019926912857
0.00315721944810501
0.00310117428889732
0.0030415456552757
0.00297781886164971
0.00290911511042933
0.00283482356577136
0.00275413176418843
0.00266600614767041
0.0025677019298985
0.00245802131610771
0.00233274041080613
0.00218810639895776
0.00202670623835959
0.00200956562684754
0.00210014689925942
0.00223310571505199
0.00236315321099579
0.00247362477032491
0.00256153474231077
0.00263053234121773
0.00268950897957092
0.00273686131108811
0.00276935103991184
0.00278703592806785
0.00279027351801606
0.00277788614104935
0.00274150836461869
0.0026787922729574
0.00259967000746733
0.00251377575762064
0.00242803875815142
0.00235096344129709
0.00229381775961098
0.00228490547999661
0.00232885371549299
0.00242375294134978
0.00257566096662218
0.00279595196951972
0.00307429752564026
0.00332390646424193
0.00328643137949148
0.00285789820501302
0.00222403653681228
0.00157714068822567
0.00120400152305732
0.00144975618704368
0.00134047259792542
0.00112203148867371
0.000683592050910611
0.00030584704676374
0.000134396053735784
6.98342198348342e-05
6.19014025134561e-05
4.35736143851323e-05
3.03813392164363e-05
2.6014815353188e-05