/*--------------------------------*- C++ -*----------------------------------*\
| =========                 |                                                 |
| \\      /  F ield         | OpenFOAM: The Open Source CFD Toolbox           |
|  \\    /   O peration     | Version:  4.1                                   |
|   \\  /    A nd           | Web:      www.OpenFOAM.org                      |
|    \\/     M anipulation  |                                                 |
\*---------------------------------------------------------------------------*/
FoamFile
{
    version     2.0;
    format      ascii;
    class       volScalarField;
    location    "30000";
    object      omega;
}
// * * * * * * * * * * * * * * * * * * * * * * * * * * * * * * * * * * * * * //

dimensions      [0 0 -1 0 0 0 0];

internalField   nonuniform List<scalar> 
21000
(
4965.26477271395
4962.88949887682
4973.18608933944
5053.62920218094
5303.68668281032
5691.05974950131
5947.1845111712
5991.98863269047
5846.89829788344
5565.79703352684
5192.4766219534
4763.23244019249
4328.67046744128
3953.33404541248
3634.55940599918
3361.79303884384
3126.79021136285
2923.03916141594
2744.87040526224
2577.13364469875
2408.70142966245
2241.69907579985
2078.40914307081
1920.87091897339
1771.17200539326
1634.33953691101
1518.13738228754
1422.52857162813
1346.69384529645
1290.34152333009
1253.63009124712
1237.09876929277
1239.64811840841
1241.31498890297
1241.31785589334
1241.32114632497
1241.32438965297
1241.32759626665
1241.33062390731
1241.33349121356
1241.33616615758
1241.33865894821
1241.34095996982
1241.34306877644
1241.34497713187
1241.34667878083
1241.34816530201
1241.3494298433
1241.3504664494
1241.35127145953
1241.35184307556
1241.3521805545
1241.3522826272
1241.35215778736
1241.35181561925
1241.35126802369
1241.35052930034
1241.34961577754
1241.34854539668
1241.34733727629
1241.34601126611
1241.34458751394
1241.34308605674
1241.3415264496
1241.33992744025
1241.33830669548
1241.33668058185
1241.33506400128
1241.33347027831
1241.33191109827
1241.33039648704
1241.32893483222
1241.32753293521
1241.32619608919
1241.32492817916
1241.32373179481
1241.32260835562
1241.32155823911
1241.32058091169
1241.31967506066
1241.31883871476
1241.31806937304
1241.31736410371
1241.31671966935
1241.31613259248
1241.31559928503
1241.31511605622
1241.31467928872
1241.31428532131
1241.31393076858
1241.31361215215
1241.31332653092
1241.3130706499
1241.31284225986
1241.31263820113
1241.31245728788
1241.31229611078
1241.31215536133
1241.31203082976
1241.31192711527
1241.31183453598
1241.31176069398
1241.31169642996
1241.31166984159
1241.31163649041
1241.31168029192
1241.31166789378
1239.6476001091
1237.09953195602
1253.6308463446
1290.34231222049
1346.69437146665
1422.52876264493
1518.13718493628
1634.33901447972
1771.17198023156
1920.87195986573
2078.41185934554
2241.70416644682
2408.70962289682
2577.14569134963
2744.88676232357
2923.05974913479
3126.81498637818
3361.82245521448
3634.59406095212
3953.37542607318
4328.72076544462
4763.29785141014
5192.56761929033
5565.92686015684
5847.08687171362
5992.27007185528
5947.60809654072
5691.65882314444
5304.3139064017
5054.0122906229
4973.32621716322
4962.90301840202
4965.26113253578
858.09388091352
857.233333334664
871.41599165941
884.78906295224
918.086057357343
977.213316367174
1020.89438174355
1029.78865828195
1005.76205359914
958.140700123399
894.517392299189
821.099159466677
746.454067143711
681.746888232692
626.845554254509
579.938486807526
539.554593430664
504.57207256903
473.975150440393
445.18467443996
416.2665015041
387.513786288533
359.309234867182
332.015122816945
306.047829786821
282.327565944225
262.124254708901
245.550240328049
232.425989464238
222.731083776285
216.503071291502
214.428291019959
217.102451490538
217.434411235056
217.154455077
216.893549847495
216.676156837066
216.484480650171
216.335017686281
216.209757878695
216.105230460657
216.010766811334
215.922016691138
215.8337259084
215.743369000834
215.648701643367
215.548726876355
215.442842491966
215.331052734663
215.213485745342
215.091718952876
214.989693083602
214.907300988268
214.8236158171
214.736482187686
214.646816281601
214.555498569578
214.46339263334
214.371330757403
214.280101339467
214.190438966268
214.103016398899
214.018438932186
213.937240673073
213.859882657673
213.786752751838
213.718166845306
213.654371351832
213.59554664975
213.541811340909
213.493227013572
213.44980348592
213.4115040886
213.378251321656
213.349931960206
213.326402777986
213.307495154922
213.293020461271
213.282773739932
213.276539296472
213.274092239523
213.275206259879
213.279649592152
213.287200825831
213.297631004271
213.310738152347
213.326303467711
213.344163763991
213.364107789493
213.386045821229
213.409758074519
213.435285924557
213.462352567394
213.491270257259
213.521547000037
213.554091874596
213.587768727035
213.624853834245
213.662423059654
213.706013089825
213.766711200419
213.886739762977
213.987954816931
214.154779320801
214.253617284908
214.48603665935
214.559985149405
214.911100126401
213.791900982157
216.350871156999
222.520987149963
232.138389523998
245.124870979672
261.530511363472
281.477695390489
304.899685427845
330.517057222622
357.511573369523
385.526159125185
414.22679411537
443.237204535005
472.3198906544
503.325494924451
538.69953717606
579.426888433728
626.645585980412
681.710558768989
746.389845354602
820.687386367874
894.16373590322
958.205611091469
1006.54438068454
1031.8693388335
1026.14450897639
988.747660758891
939.628269840262
914.070429761372
896.85611006563
884.021063861584
863.644922841262
297.070142231268
295.040378268539
293.053672040676
293.997005376093
305.228757461074
326.266674010374
339.232443902719
342.738348619518
335.118558919826
319.46752029857
298.422995004594
274.081683068328
249.297398046323
227.764835592665
209.381667290005
193.648494740709
180.099978329985
168.36109695849
158.118383733437
148.513090805275
138.883175024624
129.320744516315
119.957462938236
110.915474068645
102.320028508946
94.4615608812839
87.7850193030478
82.206573046685
77.8464652540992
74.7346822970576
72.938181976284
72.2474007798304
72.4398617210782
72.6212094523494
72.7634796947072
72.8941016912207
72.9920782744565
73.0645879868599
73.1128269194871
73.1401592254154
73.1482175002174
73.1389912865469
73.1138870357454
73.0743542679706
73.0216601682229
72.9570827581684
72.881850815951
72.7972233741761
72.7046361152891
72.6061300798564
72.5007321031301
72.3397882317742
72.1715583208988
72.004066414754
71.8378255008619
71.6740730193657
71.5139148027881
71.3583542466109
71.2082851256106
71.0644885944121
70.9276333050482
70.7982774991675
70.6768731402516
70.5637713103533
70.4592286257761
70.3634144470424
70.2764183353931
70.19825778347
70.1288858792663
70.0681988486314
70.0160432626474
69.97222297446
69.9365054822184
69.9086281194074
69.8883033101842
69.875224143115
69.8690685611101
69.8695041979723
69.8761914711716
69.8887884737971
69.9069520248215
69.9303447482359
69.9586307909785
69.9914912819106
70.0286061313838
70.069689169619
70.1144441666911
70.1626388168979
70.2140010969959
70.2683893694291
70.3255485542215
70.3855014728653
70.4479550297296
70.5132581315107
70.580947661826
70.6520493543004
70.7255042190164
70.803844395052
70.8842531409194
70.9727456942476
71.0410233211132
71.0760738432446
71.1116830001114
71.1422981981885
71.1791158854705
71.2052063280822
71.2711830022836
71.2873573568268
71.2157814826368
72.0584906872485
73.8764064312051
76.9016064980721
81.0689316552682
86.3910299486456
92.8887113095653
100.496579044148
108.8698965853
117.764728870225
127.054843791068
136.644731742097
146.431930599198
156.432327282064
167.175119256768
179.327910969913
193.230184166143
209.271424976896
227.836794235295
249.452336629727
273.818341741795
298.084726636749
319.432439809062
335.589401642712
344.04492095901
342.7685371314
334.208240390127
324.855185706656
315.645356192351
311.706380966633
306.489352070017
301.469375008045
155.500746444403
150.634291208955
150.140583831814
149.012538730996
147.486426714371
152.204878896906
156.113355107953
157.944059769509
154.672183375004
147.547092405741
137.901882040841
126.744703587223
115.410751909434
105.557161418108
97.1306825794173
89.9467496438498
83.7795589771086
78.4475078475974
73.7751658744161
69.3604641322988
64.9090315661356
60.4566185201179
56.0682602733319
51.817973349833
47.7972902218317
44.1621999075222
41.087790260307
38.5578145346781
36.6561897450202
35.4611601928172
35.0112733521619
35.2592604415049
35.7940437510483
35.8206410101574
35.6976069889233
35.553968012467
35.3993817461054
35.2431760559877
35.0883668963435
34.9340620692504
34.779750115436
34.6245929838402
34.4684900830684
34.311535076908
34.1542169468613
33.9971574326505
33.8411462936905
33.6870910205538
33.5359377164886
33.3865697790654
33.2221645644304
33.0469638664933
32.8782986608459
32.7173110736396
32.5641821379354
32.4192465015289
32.2827298087548
32.1547808161585
32.0354772524325
31.9248337922874
31.8228102975879
31.7293196536408
31.644235327311
31.567398248248
31.4986230478259
31.4377036710946
31.384418185568
31.3385330068222
31.2998064722989
31.2679918817041
31.2428399998634
31.2241011754117
31.2115269817253
31.2048717118779
31.2038933057594
31.2083546141116
31.2180238414533
31.2326756265514
31.2520911654835
31.2760597482365
31.3043780113435
31.3368534829459
31.3733006869823
31.4135512943661
31.4574407396209
31.5048337621913
31.5555922339115
31.6096328401864
31.6668479958384
31.7272370844534
31.7907277828065
31.8574797121672
31.9274206250419
32.0010216230986
32.0781407391574
32.1598837716898
32.2457389579535
32.3381893219687
32.4354599810335
32.543250438637
32.6423525957026
32.7274222142326
32.8140523886955
32.9123375689403
33.0123921949906
33.1295822046494
33.2541780283922
33.3811640119376
33.1054679629224
33.2414671620838
33.834902228541
35.0291368797036
36.7722200976649
39.0518270452606
41.862465531573
45.1429750020606
48.795242223309
52.7325216455885
56.8931455707907
61.2443149798568
65.7596157097253
70.5214992066982
75.7333298236573
81.592829953238
88.2380027961823
95.8448099780907
104.527455968792
114.445484422002
125.160260473131
135.708684800332
144.87925483717
151.455196093094
154.102191636166
152.20111913434
148.385110504908
149.846964371847
155.274325013804
163.586961933167
167.381209674348
162.902136810648
103.709083447972
97.5669871400118
98.4226013152627
99.5836770473638
92.1791078631912
86.7098832409035
86.1481145069705
87.1631827548611
85.5668253189492
81.702361165735
76.413993022457
70.3095821667545
64.1499531388986
58.8022048432445
54.2433964606236
50.3918749956944
47.1080318515404
44.2745877389711
41.755805680979
39.3240084474958
36.8326930814341
34.3019905646729
31.7808892035197
29.3389773551913
27.0650853419358
25.0605282091554
23.4002103090581
22.1102141328292
21.2550831202384
20.9025349917454
21.0784402794173
21.6918500373537
22.1663406860469
21.8135518285364
21.3295509524235
20.9082746023903
20.5492858409062
20.2458386924878
19.9879458647329
19.7642391059106
19.5671024220289
19.3903872787852
19.230151996908
19.0834696015735
18.948409784922
18.8235534790686
18.7079258721561
18.6007362422889
18.5005188555271
18.39995570294
18.2988238854517
18.2006683564111
18.1097959991323
18.0257453329423
17.9481411745046
17.8766865959631
17.8110869534351
17.7510609169919
17.6963389295821
17.6466631619751
17.6017876774499
17.5614785452956
17.5255140096634
17.4936845273061
17.4657927241004
17.4416532837111
17.4210926733603
17.4039488299256
17.3900707548072
17.3793180682856
17.3715605070275
17.3666774284186
17.3645572584143
17.3650970390336
17.3682018386589
17.3737845117608
17.3817651418466
17.3920709730793
17.4046359612214
17.4194012034933
17.4363142794424
17.4553310635893
17.4764135568563
17.4995358219299
17.524676546131
17.5518349330188
17.5810116056638
17.612245902991
17.6455679113265
17.6810816342093
17.7188575989945
17.7591275052918
17.8019966228935
17.8479416302945
17.8970877767463
17.9504080428742
18.0079101951019
18.0716274866722
18.1409607013099
18.2204305851005
18.3005900801215
18.3801311354903
18.4651619658612
18.5708820165331
18.6838955423954
18.8324335604572
18.9869242431007
19.1741790370372
18.8404881958856
18.6983451803844
18.8580345152669
19.3785751681647
20.2186509405387
21.3524853772066
22.7660022358485
24.4102631901034
26.2574993053111
28.2753436963612
30.4301355612686
32.7080952381945
35.1053845415238
37.701906085113
40.6002788702308
43.859402177247
47.535664944863
51.716282578685
56.4255310589462
61.6845815681322
67.0541288077145
72.1310656347353
76.3539665048015
79.046389979116
79.4951319548626
77.6349772988633
75.377083846918
77.8381753015773
85.5976637416176
97.9770237377341
109.401656232648
109.971744331689
75.695919487276
70.6393190795661
72.3580244443273
77.390074019277
70.1425359433846
57.3557867399879
53.2374429587579
53.6512811358204
52.8702348265657
50.5647783194299
47.3461160542551
43.6467286626508
39.9563164627734
36.7668134992852
34.070505779413
31.8260743366458
29.9290959622998
28.2837089729138
26.7704322003235
25.2484919097215
23.6468817726093
21.9880728929838
20.3251244856444
18.734065852784
17.299172496153
16.0866546460425
15.130627143137
14.4694478444325
14.1527112698104
14.2137392209113
14.6251493710299
15.1840352494407
15.3297107397804
14.6780026992507
14.0509544679233
13.5865646118761
13.2385722259538
12.9757711993421
12.7737440757279
12.614179040062
12.4853373125075
12.3788885159394
12.2893982952931
12.2129889567834
12.1469930636203
12.0894402886626
12.0388452306209
11.9936884874266
11.9504281400655
11.9079489124046
11.8668370408356
11.8283893941797
11.7936900641927
11.7622744840864
11.7338397615257
11.7081328629291
11.6849260018167
11.6640171239791
11.645225742388
11.6283902150797
11.6133656010502
11.6000218821794
11.5882425308919
11.5779232645884
11.5689709707652
11.5613027705106
11.554845136664
11.5495331136438
11.5453095887446
11.5421246261006
11.5399348421906
11.5387028453877
11.5383966987707
11.5389894805798
11.5404588114894
11.5427866138873
11.5459587262214
11.5499648169224
11.5547981328101
11.560455746964
11.5669382671035
11.5742509287532
11.5824025416461
11.5914090451149
11.6012895098367
11.6120759841241
11.6238021557767
11.6365263097117
11.6503040016216
11.6652379006257
11.6814161656129
11.6990289195824
11.7182032424035
11.7392968862943
11.7624842061352
11.7884608959694
11.8174028200432
11.8507202831607
11.8883696429087
11.9334263160036
11.9821865719015
12.0334162750152
12.0908561232878
12.1671161264812
12.2536870511402
12.3756019374088
12.5113709073885
12.6885947270438
12.4226479081051
12.2234583861194
12.2393376087171
12.4970395295047
12.9633499591355
13.6112611483029
14.4251787166247
15.3699495326666
16.4351475793035
17.6066216054748
18.8644460953969
20.2003602347614
21.614917095536
23.1638612193645
24.9059236044191
26.8607705518473
29.0525586955317
31.5266195381901
34.2843340973105
37.3073337150849
40.2648118553553
42.950802051558
45.1031779229964
46.3728002894078
46.4091941402613
45.2914839582427
44.1645651528364
45.9863024407237
51.6002138792699
61.4773774106748
73.9041333577893
78.5432379240611
56.4015667081848
53.3729174420712
55.5587791087593
63.7157156073561
60.500807492096
43.6242920319766
35.660936492347
35.4182656235653
35.1010141411813
33.6678091098457
31.5905469238646
29.2167902244724
26.8862932690359
24.8892242562672
23.224530657363
21.8655777850587
20.7213208463593
19.7014961279762
18.6996846374103
17.6308065654734
16.4724305880969
15.2595054979216
14.0559086409348
12.9405352431255
11.9834526144965
11.2219094590576
10.6689238218326
10.3563754691042
10.3107104674015
10.5280558133072
10.9293085722518
11.2794823583932
11.1702044055057
10.4846764155502
9.94911721176974
9.59808598190325
9.35845084493648
9.19234049593241
9.07450666232682
8.98869653689868
8.92490717580603
8.87648323964448
8.8391520721032
8.80996076091289
8.78689201788523
8.76845763491149
8.75342781387618
8.74007826985978
8.72708313364084
8.71441775447201
8.70238282623845
8.69152015930046
8.6821335513173
8.67394748039986
8.66679566632587
8.66053870593793
8.65505579150635
8.65024342663261
8.64601242713512
8.6422858905734
8.63899760674353
8.63609076243449
8.6335169041674
8.6312350503316
8.62921093381398
8.62741634734499
8.62582853562115
8.62442966122597
8.62320631096762
8.62214904768041
8.62125199479122
8.62051246570748
8.61993061517694
8.61950915472162
8.61925305732825
8.61916941037149
8.619267189021
8.61955721679202
8.62005204709328
8.62076614470794
8.62171577558907
8.62291972852081
8.62439879494967
8.62617803746971
8.62828464186164
8.63075395233323
8.6336228033653
8.63694405576203
8.64077040234976
8.64518532426689
8.6502666761903
8.65615803821019
8.6629719157314
8.67096673201732
8.68030502099977
8.69147448196932
8.70468121897658
8.72089058376897
8.74026181735635
8.7648524294776
8.79322921753316
8.82500280799976
8.86206838235548
8.9137232325611
8.97551829968847
9.06592500040959
9.17330713253397
9.31820026295183
9.13442799420821
8.95378462179665
8.92336550143629
9.0659447840217
9.35709474585971
9.77355895445068
10.3007700525435
10.9131784049373
11.6045993971683
12.3674761163864
13.1890066153972
14.0630713367428
14.9904718324548
16.007968101651
17.151867242436
18.4293662052285
19.8508295556531
21.440542798407
23.195328577811
25.0912508256175
26.9040163794754
28.5128712185015
29.7881215274767
30.5450251569812
30.6000807287596
30.0298026780089
29.514114322801
30.8087008341365
34.5693399057998
41.1922581088894
50.9145294247623
56.4987443997754
42.557519523587
41.1916530067407
43.4631030667188
53.0888929874905
55.1479946142777
37.8593728032141
25.6705666130248
24.4959931248571
24.4584827641299
23.574599227231
22.2004776096122
20.639163659554
19.1365910732005
17.8654718027963
16.8259746665645
15.9934490273237
15.2805497698028
14.5994353945643
13.8615563959391
13.0267564112201
12.1102787245078
11.1624180030892
10.2532926440059
9.45276665475394
8.8077170730499
8.33120704739816
8.02289104575728
7.90137489531279
7.97192068687669
8.20571713861156
8.50756419110614
8.68241328019557
8.48427598027854
7.9305086447728
7.55252034504784
7.3234585479931
7.17645763480819
7.08129868333986
7.0188126772062
6.97747592750599
6.95025584378457
6.93260100779096
6.92159571867083
6.91525021984853
6.91219789222862
6.91139702789714
6.91189059315788
6.9125548542485
6.91307597365598
6.91346128628393
6.91388949268941
6.91461619072205
6.91572939061165
6.91707286596008
6.91855720059861
6.92010791472496
6.92166268201742
6.92317009009656
6.92458776607059
6.92588109904674
6.92702224452137
6.92798931377668
6.92876572058348
6.92933961501829
6.92970339310763
6.92985326467771
6.92978884411487
6.92951278466535
6.92903043554908
6.92834952661397
6.92747987433191
6.92643311770892
6.92522247159751
6.92386252427406
6.92236903410263
6.92075882814484
6.91904965548427
6.91726016766785
6.91540986311025
6.91351922805362
6.91160971163065
6.90970423835875
6.90782697066026
6.90600491041279
6.90426656812328
6.90264598808817
6.90117876763459
6.89991165488574
6.89889264535779
6.89819110968351
6.89787562322255
6.89805958093155
6.89884244666245
6.90042107238743
6.90294335224611
6.90677033301663
6.91210961523478
6.91965762725859
6.92965542043322
6.94354581712067
6.96085851278746
6.98179231107679
7.00734841465031
7.04424988002914
7.0904975251697
7.1593080732011
7.24549116933808
7.36291209182609
7.24082807499078
7.09168550739968
7.04572699478515
7.12895632114651
7.32516021462892
7.61552271689932
7.98704693882067
8.42021972682412
8.910070545447
9.45184488102983
10.036748216354
10.659928618515
11.3219366041663
12.047893913477
12.8621751854294
13.7675686547115
14.7682507516009
15.877685898718
17.0920717425159
18.3896439534571
19.6172892802487
20.695910190591
21.5546031141109
22.0873356220215
22.1870699901985
21.9094942757187
21.6859195437345
22.6426938173043
25.2891213483532
29.7702447203346
36.6098573485204
41.4015197355206
32.8488797915849
32.4430161983942
34.5078834919426
44.0848510536122
50.8537225391527
36.2416654465355
20.1018613976912
17.5217203506988
17.6172825880776
17.1090394702083
16.2047102436704
15.1806641313982
14.2179991472426
13.4171968202522
12.7759534761469
12.2655587947063
11.8000360793158
11.2982205636968
10.6969858013889
9.99631292318456
9.24007882399701
8.48715766853982
7.80150409601433
7.23308165829622
6.80485269350146
6.51412532536362
6.35364315830757
6.33091868996345
6.4381668144334
6.63772614711234
6.84503048646788
6.92301181467872
6.73516402102057
6.33613291163667
6.08457486119376
5.93912438844105
5.85001123228262
5.79622261511688
5.76430423687856
5.7464118884232
5.73769544711434
5.73505031692263
5.73647062878468
5.74059073306109
5.74645908122084
5.7533298599956
5.76043977630906
5.76728140027041
5.77372271827574
5.77977974561604
5.78556273380192
5.79119935301437
5.79670834573913
5.80199692035793
5.80701366114221
5.81171650927934
5.81607182905496
5.82005342398218
5.82364134413411
5.82682106378569
5.82958283742382
5.83192116782907
5.83383436691401
5.83532416316052
5.83639535024957
5.83705546647865
5.83731448267135
5.83718451598266
5.83667955678674
5.83581521361961
5.83460847390764
5.83307748737424
5.83124136541914
5.82912001498542
5.8267339784679
5.8241043497795
5.82125266634436
5.81820089509166
5.81497140643215
5.81158708827096
5.8080713651725
5.80444858192604
5.80074397386093
5.79698476262297
5.7931993516137
5.78942021614746
5.78568148052037
5.7820255148184
5.77849680358367
5.77515556432286
5.7720640272045
5.76931674262189
5.76700407042455
5.76528495264222
5.76429588041848
5.76432035763786
5.76556069607167
5.76854933098334
5.77356127624255
5.78166616621473
5.79284123505701
5.80758187099195
5.82654434061185
5.85465907688861
5.89134218303259
5.94620612447637
6.01787228580685
6.11545428412699
6.03572448949497
5.91576001881329
5.86576768989396
5.91482709755917
6.05359829364484
6.2673088658903
6.54456920132432
6.8698175814896
7.23855093106683
7.64737513639403
8.08992147186676
8.56224591971428
9.06471129126548
9.61536233679678
10.2317681340405
10.9151019033933
11.6667033754589
12.494264452212
13.3941639676535
14.3477643322948
15.2462439415263
16.0330027332294
16.6650319526114
17.0762514260974
17.1984036686627
17.0713913364954
16.9886341364584
17.7247448969572
19.6885481782047
22.9027438251079
27.7265703720168
31.4182297490049
26.1121545225474
26.1561533155401
27.883983439659
36.416713858715
46.521918825784
36.4584110417078
17.5087678113551
12.9448199299348
12.9934054005134
12.7498985710087
12.1752120261273
11.5236362516024
10.9277764265597
10.4415722032774
10.0580940453699
9.7432471731367
9.41518974099278
9.00694468862326
8.48601511405787
7.88494541306049
7.2627880517712
6.67469123546721
6.1683872495791
5.77256273720785
5.4936253092298
5.32205855522342
5.24846188107534
5.27352556205326
5.38383953167047
5.54327293521549
5.68629800832513
5.7222144074356
5.57430592524644
5.29552098885336
5.12727290969517
5.03325366456143
4.97829185337857
4.94801182402179
4.93288136092742
4.92743119241095
4.92820473364149
4.93300082685649
4.94037838347867
4.94935419948084
4.95922884884857
4.96943958502189
4.97945166186775
4.98902352778562
4.99807559909806
5.006621646114
5.01472845530527
5.02245953257367
5.0298090612889
5.0367180064858
5.04315396426255
5.04909124870886
5.05451055561142
5.05939820396637
5.06374533976612
5.06754737386085
5.07080353351174
5.07351648032781
5.07569198124574
5.07733860155269
5.07846741844018
5.07909174941231
5.07922688162311
5.07888981751773
5.07809902898332
5.07687422521094
5.07523613439077
5.07320630516441
5.07080692452654
5.06806066566807
5.06499054742209
5.06161985484411
5.05797204989594
5.05407075717852
5.04993975161592
5.04560305393693
5.04108497459499
5.03641042474453
5.03160501144955
5.02669573491345
5.02171064425474
5.01668093983248
5.01163952945887
5.0066257231913
5.0016814588324
4.9968608283278
4.99222157581087
4.98784589611429
4.98381748864191
4.98027067122782
4.97733281291146
4.97523736331279
4.9741789212359
4.97458479175554
4.97674112715139
4.98148065256781
4.98900035493801
4.9999222458613
5.01478871161283
5.03730721046172
5.06769982182798
5.11315599730883
5.17447857168361
5.25761692616718
5.20685534438072
5.11134640228293
5.06244124964384
5.09063335571088
5.19200888889458
5.35528342052856
5.57060074738744
5.82517307618287
6.11477672802807
6.43674711482138
6.78627185602107
7.16009740856826
7.55848773530175
7.99498222305606
8.48294251821017
9.02296932960077
9.6150944501538
10.2637809080817
10.9657192102815
11.7049997895875
12.4009387325414
13.0103031221274
13.5044674185112
13.8393036935647
13.9683137849547
13.9209610727849
13.9084865127534
14.4929572658937
16.0087442750558
18.4393356105684
21.9788802059044
24.7863687972522
21.3712088899522
21.5981512031627
22.9939499717508
30.0303455737092
41.9496401664655
37.0496610527113
17.1278892599467
10.0217818813737
9.7743797369602
9.70570594644041
9.36437379067737
8.97498958668278
8.63185103069333
8.35725341986418
8.13902327609802
7.93973975396871
7.68688135186137
7.33374116500951
6.87717919873576
6.36947383276008
5.87015866028768
5.42194700376855
5.0550861188305
4.78306805107372
4.60416328909612
4.50755337966945
4.48395173496995
4.53047169859342
4.6325804511084
4.75971759014745
4.8636537579944
4.884138218881
4.77507886752509
4.57897026213431
4.46361538640645
4.40134995116191
4.36705688100863
4.35065334296858
4.34516686100837
4.34663955286439
4.35250875822921
4.3611477430579
4.37147552193779
4.38275187438614
4.39443989804112
4.40610116306016
4.41738611300844
4.42815103772427
4.43834157787353
4.44796518334075
4.457059784322
4.46565417787581
4.47373345022699
4.48125709854831
4.4882025900512
4.49455281641426
4.50029592917279
4.50542475501397
4.50993623697818
4.51383102451084
4.51711313474055
4.51978965031855
4.52187044476366
4.52336791439169
4.52429671803087
4.52467352205337
4.52451674251582
4.52384629843936
4.52268337177828
4.52105017947642
4.51896975926983
4.51646577455992
4.5135623371328
4.51028385798874
4.50665491439759
4.5027001690792
4.49844428927896
4.49391193010478
4.48912772762317
4.48411638134237
4.47890271364032
4.47351196093001
4.46796983708976
4.46230310167116
4.45653945785659
4.45070913269641
4.44484406836943
4.43898136650747
4.4331610285529
4.42743281714242
4.42185107026083
4.4164893808927
4.41142619065789
4.40677884423318
4.40266695342765
4.39928977467006
4.39683312802554
4.39565324296972
4.39603543614151
4.39865453134511
4.40381650988249
4.41218164118945
4.42426757707251
4.44293671924803
4.46886044778027
4.50757571390612
4.56108818726073
4.63325796085644
4.60254697987163
4.5270442268202
4.48167272319667
4.49678849829658
4.57258959909389
4.70074863992759
4.87284176830875
5.078158892697
5.31271818371888
5.57428144873488
5.85908261559459
6.16440706557389
6.49047631530721
6.84781124099228
7.24697836594984
7.68840841740027
8.17155038453918
8.69898291682473
9.26769229443365
9.8639582968728
10.4257464091371
10.9184560277199
11.3214736879299
11.6036082279658
11.7315493312839
11.7277717103164
11.7511014633351
12.2263441747237
13.430400406386
15.3407703432834
18.0490838703638
20.231735650861
17.9374672601549
18.2283163899548
19.3572685507644
24.8535145296052
37.258355830839
37.2145512804801
18.3135986251851
8.37416865989689
7.52228698781885
7.53755988117084
7.35485466258308
7.14603016391845
6.97473554768237
6.84016352650781
6.72541204269949
6.5933427092674
6.38520124707351
6.0758349376903
5.68377022617523
5.2671191573798
4.87637533749635
4.54057125148542
4.27709434978303
4.09116509909221
3.97825108677254
3.92844360131369
3.93327057448495
3.98823076357792
4.07977626683534
4.18337504712563
4.26375259088471
4.27954487123582
4.20083346393055
4.06034509036794
3.97929950671564
3.93743056427899
3.91627852705456
3.90853159476489
3.90892171958212
3.9144835884426
3.9232510224232
3.9339787658986
3.94582671372365
3.95821747869985
3.97072787685948
3.98300763725629
3.99483271501779
4.00609885211114
4.01676413344419
4.0268289346082
4.03631162498038
4.04522121206147
4.05353945972591
4.06123636788084
4.06829471648684
4.07470206170438
4.08045060702635
4.08553674968289
4.08996066966955
4.09372601145439
4.09683960717347
4.09931121571729
4.10115327190737
4.10238063194836
4.10301031842188
4.10306126464536
4.10255405433849
4.10151066975313
4.09995424615111
4.09790883821998
4.09539920113249
4.09245059119216
4.08908858616538
4.08533893338254
4.08122741801654
4.07677977813015
4.0720216263702
4.06697843041234
4.06167550664365
4.05613809353512
4.05039143840046
4.04446102540288
4.03837263821984
4.03215287202193
4.0258291591236
4.01943099809596
4.01298956389709
4.00654030725033
4.00012168649843
3.99378024602155
3.98756757759891
3.98155095404751
3.97580441843367
3.97043297879482
3.9655493779598
3.96132829941624
3.95794639054691
3.95570946603188
3.95489554617606
3.95606939303734
3.95958828902557
3.9661034508637
3.97614720078451
3.99197631084144
4.01450345894259
4.04811209745319
4.0954233033505
4.15890764507278
4.14223032805167
4.08299427247355
4.04227921653625
4.04918771888665
4.10691371626335
4.20960749588424
4.35016716631226
4.51952180265716
4.71393469102299
4.93143989541409
5.16900296183954
5.42433766065385
5.69765433454744
5.99735860756316
6.33204869581253
6.70213904732121
7.10685145665259
7.54762926021707
8.02171359522993
8.51712390773353
8.98472535255776
9.39588183613343
9.73475063482224
9.97820524789316
10.1013929262825
10.1219140535046
10.1632361554443
10.5566914792823
11.533964915567
13.0773892912265
15.2219392085475
16.9691277455832
15.3679328603292
15.6737399253108
16.6064064664551
20.7526059139319
32.6466252324148
36.6750132951504
20.3630058567858
7.76549383694626
5.98732444446083
5.98574697508075
5.90025067477602
5.80765926274661
5.74822994520715
5.70316200070231
5.65157114697814
5.55981998561216
5.38447009851862
5.11831709726664
4.79147759781501
4.45812192089406
4.1571276228116
3.90713117565866
3.71795964570894
3.59111746269361
3.52167899291002
3.5011409972965
3.52193906602549
3.57904018337591
3.66060844208894
3.7472744381069
3.81286403338833
3.82783289859454
3.77146337307787
3.66902521929267
3.61112861298368
3.58300292022983
3.57066765629538
3.56865020688178
3.57285906717834
3.58100715168818
3.5915438813489
3.60348891011103
3.61617110041296
3.62912739388481
3.64201520021841
3.65456045546933