/*--------------------------------*- C++ -*----------------------------------*\
| =========                 |                                                 |
| \\      /  F ield         | OpenFOAM: The Open Source CFD Toolbox           |
|  \\    /   O peration     | Version:  4.1                                   |
|   \\  /    A nd           | Web:      www.OpenFOAM.org                      |
|    \\/     M anipulation  |                                                 |
\*---------------------------------------------------------------------------*/
FoamFile
{
    version     2.0;
    format      ascii;
    class       volScalarField;
    location    "30000";
    object      p;
}
// * * * * * * * * * * * * * * * * * * * * * * * * * * * * * * * * * * * * * //

dimensions      [0 2 -2 0 0 0 0];

internalField   nonuniform List<scalar> 
21000
(
0.915362460510538
0.936044146036018
0.937339452167124
0.961084813388901
0.981316823106295
0.991917115456107
0.996528576344539
0.999300950098867
1.00191091232112
1.00382832445919
1.00544622988366
1.00667081640105
1.00760315382463
1.00832937954077
1.00893183756021
1.00941967454768
1.00986315505957
1.01027425073118
1.01073607378944
1.01128551215086
1.01193539681426
1.01269900925852
1.01356463821137
1.01450110077161
1.01544336124474
1.01629776952456
1.01707704807064
1.01773942990925
1.01825916716676
1.01859923152943
1.01873219420848
1.01874808084896
1.01779373898687
1.01772623876541
1.01786282362979
1.01853033207903
1.01958364551145
1.02106254879513
1.02289978645767
1.02508194437069
1.02757324927508
1.03035583164738
1.03340801601467
1.03671433615305
1.04025884237622
1.04402751506082
1.04800605481223
1.0521804345995
1.05653616590669
1.06105844139715
1.0657318504001
1.07054046677583
1.07546804163745
1.0804981421538
1.08561416693018
1.09079952317766
1.09603777892288
1.10131281809429
1.10660898600643
1.11191122569063
1.11720519867081
1.12247738980205
1.12771519329092
1.13290697997468
1.1380421456063
1.14311114056231
1.14810548248751
1.15301775296995
1.15784158026978
1.16257160977984
1.16720346447633
1.17173369696864
1.17615973570793
1.18047982611705
1.1846929699904
1.18879886220493
1.19279782922678
1.19669076656921
1.20047908164905
1.20416463420604
1.20774968947734
1.21123685924566
1.21462907554701
1.2179295211725
1.2211416440275
1.22426905212847
1.22731560662697
1.23028522337558
1.23318214372431
1.23601048437616
1.23877493132337
1.2414796901976
1.24413012450075
1.24673028094626
1.24928683850447
1.25180301000928
1.25428829284156
1.25674322929684
1.25918373512292
1.26160262567179
1.26403086620364
1.26644092483759
1.26890110144484
1.27132769048567
1.27387687388793
1.27632314576357
1.27903229342146
1.28141665938721
1.28435059186362
1.28710766503221
1.29015819054792
1.29319714971605
1.296325442025
1.29942561255389
1.30245760930663
1.30536411055258
1.30795574790312
1.31006262994936
1.31154099122973
1.31220614098653
1.31195638373001
1.31063080962745
1.30840171409365
1.3054379958157
1.30159326261673
1.29657111409097
1.2902450893777
1.28160704423924
1.27011693285642
1.25194035132356
1.22512415528464
1.1870509883045
1.13403774162038
1.06050398068854
0.965226162536877
0.862135478757325
0.811510630572195
0.827018399151628
0.851716678161323
0.899666596572468
0.915367982442672
0.936044788599897
0.937364579007109
0.960934544642009
0.981080855845043
0.991729414200868
0.99641402217855
0.999213203169538
1.00183548001353
1.00377108140846
1.00540348658532
1.00664457813261
1.00759055822297
1.00832671805074
1.00893688649782
1.00943062501781
1.00987793659168
1.01029031453887
1.01074967637111
1.01129455967803
1.01193876088039
1.01269637581632
1.01355706002826
1.01449128169212
1.01543576008782
1.01629479240384
1.01707867114764
1.01774569719104
1.01826941122067
1.01861177143157
1.01874528305351
1.018761460815
1.01780806129488
1.01774495027566
1.01788208285851
1.01855090692656
1.01960532362399
1.02108542559703
1.02292368815758
1.02510674991943
1.02759877177362
1.03038189880574
1.03343444223046
1.03674094242192
1.04028544929023
1.04405394830792
1.04803214408042
1.05220601609581
1.05656108301944
1.06108254632268
1.06575500294758
1.07056253490785
1.07548890579919
1.08051769821187
1.08563232430074
1.09081620552268
1.09605292451482
1.10132637985499
1.10662093129978
1.11192153588602
1.11721386849978
1.12248442653705
1.12772061577761
1.13291081755087
1.1380444369413
1.14311193244916
1.14810482861784
1.15301571271906
1.15783821751538
1.1625669917744
1.16719766078867
1.17172677850662
1.17615177383037
1.18047089183949
1.18468313328617
1.18878819140251
1.19278639049765
1.19667862350479
1.2004662949178
1.20415126128795
1.20773578446422
1.21122247270569
1.21461425443554
1.21791430880488
1.22112608011126
1.22425317285207
1.22729944460663
1.23026880632962
1.23316549557847
1.23599362735467
1.23875788339797
1.24146246708588
1.24411274095281
1.24671274928423
1.24926916789411
1.25178520783385
1.25427036487801
1.25672517897952
1.25916556794729
1.26158433800732
1.26401246455751
1.26642239305843
1.26888249174995
1.27130896161215
1.27385816830755
1.27630432718148
1.27901396307653
1.28139952756905
1.28434349278075
1.28711690072041
1.2901856961647
1.29324195143463
1.29638621218024
1.299497983025
1.30253692350866
1.30544125032666
1.30801802417516
1.31009854561234
1.31153956769832
1.31215895747581
1.31185738858703
1.31048295463195
1.30821513935759
1.30521266921418
1.30131791061656
1.29623509418337
1.2898198945464
1.28105422215981
1.26933476146945
1.25081864505376
1.22360724844568
1.18508503851398
1.131588111365
1.05773560034517
0.962798428449454
0.861262783311844
0.811937850484599
0.827443722199019
0.851906017147219
0.899717757741817
0.915389586180518
0.936077275415616
0.937431317680305
0.960835352045809
0.980889165264126
0.991571316712721
0.99631181438345
0.999132438683816
1.00176543671021
1.00371721901129
1.00536289786453
1.00661923856823
1.00757813870639
1.00832379236363
1.00894138645791
1.00944081344045
1.00989191384601
1.01030565144862
1.01076279010152
1.01130322517708
1.01194165880015
1.01269293543871
1.01354797445988
1.01447886717934
1.01542421157706
1.0162866851925
1.01707441116326
1.0177456709134
1.0182734114425
1.01861833251528
1.01875410310502
1.01877100374588
1.01781648939083
1.01775912979056
1.01789663774716
1.01856692606428
1.01962255673423
1.02110413033071
1.02294359080018
1.02512770572287
1.02762051718912
1.03040422508425
1.03345712296297
1.03676377731822
1.04030824103936
1.04407651381465
1.04805430741699
1.05222761189997
1.05658195453171
1.06110254679388
1.06577398890743
1.07058037745605
1.07550549829562
1.08053294374935
1.08564613924047
1.09082852120515
1.09606368746078
1.10133555177001
1.10662848879906
1.11192746998664
1.11721818389137
1.12248714066888
1.12772175779166
1.13291042709713
1.13804256291482
1.14310863168068
1.14810016455339
1.15300975411718
1.15783103718884
1.16255866539601
1.16718826578051
1.17171639302104
1.1761404758372
1.18045875831415
1.18467023951308
1.18877461037753
1.19277219244144
1.19666387546027
1.20045106045809
1.20413560027236
1.2077197529266
1.21120612271041
1.2145976341491
1.21789746239484
1.22110904805308
1.22423599091285
1.22728214458055
1.23025141407894
1.23314803425873
1.23597611927628
1.23874035926142
1.241444950689
1.24409524694809
1.2466952860374
1.2492517499937
1.25176783626061
1.25425305960112
1.25670792614777
1.25914840791076
1.26156722024412
1.2639954751721
1.26640539553446
1.26886574867206
1.27129212884601
1.2738418960294
1.27628771621236
1.27899877239749
1.28138332730838
1.28433653864685
1.28712400884761
1.29020984982172
1.29328190513618
1.29644072522702
1.2995625986763
1.30260679916152
1.30550747493136
1.30806851952526
1.31012287412037
1.31152811385152
1.31210459882334
1.31175570604662
1.31033740578608
1.3080342524971
1.30499473666338
1.30105194469033
1.2959102789538
1.28940943052198
1.28052048634259
1.26858835283098
1.24977263617775
1.22223112920186
1.18336225431178
1.12956011983398
1.05570218944578
0.961568707164376
0.861924107660686
0.813537243557993
0.828351377456806
0.852207392156292
0.899792472691415
0.915453975348389
0.936161773281374
0.937584819092734
0.960794459397703
0.980712576446061
0.991435224867082
0.99622248697472
0.999057581359481
1.00169864494507
1.00366519105287
1.00532328711499
1.00659430348185
1.00756587676795
1.0083209067463
1.00894584559597
1.00945084077792
1.00990560067993
1.01032056784579
1.01077532380272
1.01131088968591
1.01194281566837
1.01268665824631
1.01353459063852
1.01446034737103
1.01540454264054
1.01626877710773
1.01705910920065
1.01773383128499
1.01826535940887
1.01861288252271
1.01875218133766
1.01876633323127
1.0178107709867
1.01776093524681
1.01790076456214
1.0185741333971
1.01963248628198
1.02111678930179
1.02295834208113
1.02514410675165
1.0276380305909
1.0304224359169
1.03347563132014
1.03678224848613
1.04032636507091
1.04409401625234
1.04807093447866
1.05224313125592
1.05659615200312
1.06111522661512
1.06578497606393
1.07058953625748
1.0755127191612
1.08053812674073
1.08564920681232
1.09082941940975
1.09606238564716
1.10133204207962
1.10662278522117
1.1119196070882
1.11720821523949
1.12247513701524
1.12770780507033
1.13289462429719
1.13802501989523
1.14308946697697
1.14807950323279
1.1529877257247
1.15780777382348
1.1625342999423
1.16716293032039
1.17169021743105
1.17611358658888
1.18043127745825
1.18464228386842
1.18874629088677
1.19274361371235
1.19663513543671
1.20042225027132
1.20410680414981
1.20769104832049
1.21117758033743
1.21456931840871
1.21786943143019
1.22108135380227
1.22420867748893
1.22725525084566
1.23022499417177
1.23312214545508
1.23595079344773
1.23871560927884
1.24142078723951
1.244071695467
1.24667236258798
1.24922948290424
1.25174623325464
1.25423216285675
1.25668772476736
1.25912898079871
1.26154851021381
1.26397765262222
1.26638825617096
1.26884969092992
1.27127662768777
1.27382790301897
1.27627388273796
1.27898726754899
1.28136953386252
1.28433155591754
1.28713018211529
1.29023056488081
1.29331572253898
1.29648605680427
1.29961467509023
1.30266036575714
1.30555333390768
1.30809493144968
1.31012049695749
1.31148860686185
1.31202220297616
1.31162766135338
1.3101683156936
1.30783155158941
1.30475457536291
1.30076269165867
1.29556020324635
1.28897143875758
1.2799567074275
1.2678172812479
1.24872871949941
1.22090907371916
1.18178398473061
1.12784383324027
1.05428385111971
0.961432943429983
0.864178130064095
0.816644161554826
0.83010416190252
0.85281282168514
0.899918346920894
0.915600189503445
0.9363252789307
0.937885344057618
0.960861120331039
0.980539289498797
0.991305445939951
0.996141686867119
0.998986161888105
1.00163249220997
1.00361280975996
1.00528288405075
1.00656862024394
1.00755321609017
1.00831795642476
1.00895052069752
1.00946123244421
1.00991968040474
1.01033577996386
1.01078779558256
1.01131764993949
1.01194172022236
1.01267623690997
1.0135146410755
1.01443234005524
1.01537223100985
1.01623551599718
1.01702614374196
1.01770257406047
1.0182369105389
1.01858676798001
1.01872960650333
1.0187364327627
1.01778717326614
1.01774849215921
1.01789375917825
1.01857326482879
1.01963667085834
1.02112539542699
1.02297001520741
1.02515788186417
1.02765291498463
1.03043767725285
1.03349054487015
1.0367962724548
1.04033899375641
1.04410480970103
1.04807949311878
1.05224910056447
1.05659923464453
1.0611151412056
1.06578146690415
1.07058243276869
1.07550189255363
1.08052347413771
1.08563066905403
1.09080698072436
1.09603607235584
1.10130192072457
1.10658895994048
1.11188221645021
1.11716742860795
1.12243115058821
1.12766083770471
1.13284491323709
1.13797281652499
1.14303503268785
1.1480231054936
1.15292963442338
1.1577482579356
1.16247362455877
1.1671013540633
1.17162799025522
1.17605094798385
1.18036845501163
1.18457949220641
1.18868373093018
1.1926814722593
1.19657358498287
1.2003614491316
1.20404689669511
1.20763216555704
1.21111984038698
1.21451282753886
1.21781428421757
1.22102763293646
1.22415647128468
1.22720465082268
1.23017604282216
1.23307486451549
1.23590522679007
1.23867181453778
1.24137881431546
1.24403159969621
1.24663418700694
1.24919329503669
1.25171207100192
1.25420012503571
1.25665782961789
1.2591013952555
1.26152319869644
1.26395496517772
1.2663679217275
1.26883236179444
1.27126151600688
1.27381649716577
1.27626405992509
1.27898221113633
1.28136284763205
1.28433335547664
1.28713646479644
1.2902451471845
1.29333633244929
1.29651104184088
1.29963884306072
1.30267797609698
1.30555430831462
1.30806785224945
1.31005750428771
1.31138289727052
1.31186971765143
1.3114278246064
1.30992824060415
1.30755883770161
1.30444291257021
1.30039865868219
1.2951298425133
1.28844505800566
1.27929302656407
1.26693524184596
1.24757649381464
1.21949957822623
1.18016387298325
1.12618018576453
1.05310126294332
0.961856400900699
0.867419172578944
0.820923481353003
0.832787417930252
0.853921502894829
0.900171473195159
0.915868843083036
0.936593514719523
0.938364334666872
0.96108886830554
0.980394441717668
0.991168816621704
0.996067934047477
0.99891882318805
1.00156739630764
1.0035601831065
1.00524163095017
1.00654206437569
1.00754008322515
1.00831493074395
1.0089554748114
1.00947210111514
1.00993429316803
1.0103514250947
1.0108002567436
1.01132332268814
1.01193780547482
1.0126605315774
1.01348618487144
1.01439182908232
1.01532300482495
1.01618142537364
1.01696889578119
1.01764434064361
1.01817987613278
1.01853146467098
1.01867666691017
1.01867203491199
1.01774427258032
1.01772179320935
1.01787726744392
1.01856774963764
1.01963932943462
1.02113435603654
1.02298277750763
1.02517271343761
1.0276682050134
1.03045223387285
1.03350332713793
1.03680644400184
1.04034582204765
1.04410767283952
1.04807784639749
1.05224250021497
1.05658728080498
1.06109747804107
1.06575783991335
1.07055267331166
1.07546589242077
1.08048118297202
1.085582102851
1.09075221885106
1.09597525418898
1.10123524140966
1.10651666535427
1.11180459762677
1.11708481573756
1.12234390678172
1.12756935266572
1.13274959698878
1.13787409333492
1.14293333529253
1.14791886972197
1.15282329428866
1.15764024125126
1.16236434910417
1.16699122432109
1.17151739470471
1.17594025695677
1.18025801905118
1.18446964093947
1.1885747723703
1.19257369254744
1.19646724844772
1.20025679875007
1.2039441547121
1.20753153455506
1.21102150425417
1.21441695295696
1.21772102060551
1.22093712951482
1.22406884421465
1.22711998095683
1.23009443248294
1.23299642921639
1.23583006580948
1.23860002793968
1.24131049506787
1.24396685609126
1.24657311443165
1.2491360302799
1.25165871443438
1.25415087263693
1.25661277017466
1.25906083992002
1.26148718064246
1.26392408639028
1.26634189911587
1.26881220595787
1.27124619306834
1.27380815172702
1.27625966536975
1.27898620687824
1.28136826847431
1.28434552805054
1.28714210024091
1.29024844524262
1.29333385366008
1.29650168471789
1.29961713250047
1.30263776887614
1.30548458713531
1.30795775527044
1.30990095197479
1.31117494332955
1.31160838414228
1.31111525395201
1.30957486792285
1.30717327482137
1.30401663592355
1.29991599400439
1.29457368180792
1.28778176171066
1.27847567668351
1.2658786605316
1.24623601669411
1.21789833230102
1.17835967279112
1.12436431894197
1.05184644201213
0.962375359392008
0.871029112277584
0.825814716898023
0.836178803887234
0.855571837406941
0.900617993900503
0.91627120670165
0.936975567054318
0.939011122997193
0.961494036115201
0.98033073155389
0.991008398234254
0.995998493063723
0.998856027792731
1.00150402859507
1.00350768833768
1.0051996915076
1.00651466840595
1.00752650347483
1.00831187890244
1.00896080804002
1.00948358101373
1.00994958622455
1.01036763495352
1.01081274902983
1.01132772735975
1.01193054557066
1.01263853536273
1.01344761875867
1.01433654396413
1.01525397047972
1.01610319308322
1.01688382841305
1.0175555086323
1.01809047900248
1.01844280234663
1.01858849399222
1.018570783215
1.01768530673488
1.01768504339394
1.01785703002601
1.01856357315694
1.01964574614272
1.02114788531943
1.02299974492868
1.0251907077272
1.02768514019015
1.03046662674162
1.03351392951694
1.03681228663317
1.04034608134857
1.04410167471286
1.04806503231449
1.05222241167926
1.05655953155578
1.06106177699951
1.06571399185954
1.07050057080319
1.07540550443541
1.08041255438793
1.08550535383984
1.09066754045735
1.09588290353349
1.1011355359759
1.10640997659066
1.11169134411636
1.11696545604416
1.12221893217445
1.1274392798623
1.13261496106435
1.13773544093964
1.14279121827429
1.14777383925109
1.1526758955476
1.15749100874107
1.16221380258609
1.16683986541051
1.17136570409311
1.17578869226526
1.18010701324451
1.1843196013123
1.1884260800081
1.19242670227723
1.19632228913813
1.20011417406155
1.20380414402319
1.20739439439674
1.21088746956402
1.21428623858068
1.21759382989695
1.22081363350875
1.22394919980921
1.22700435815118
1.22998298845976
1.2328893137483
1.23572741913669
1.23850199574246
1.24121721854506
1.24387850059842
1.24648983461553
1.24905803620776
1.25158617907286
1.25408409229277
1.25655192176634
1.25900638100661
1.2614392421162
1.26388351584226
1.26630849211083
1.26878731247144
1.2712287080012
1.27380082033297
1.27625898502792
1.27899772129228
1.28138497051734
1.28436636187679
1.287145548201
1.2902387945204
1.29330648788523
1.29645602429749
1.29954736983398
1.30253726332208
1.30534160293366
1.30776166585991
1.309646815329
1.31085921887355
1.31123081839882
1.31068029417441
1.30909545039451
1.30665882855498
1.30345713728177
1.29929380203555
1.29386834998771
1.28695522528612
1.27747446827594
1.2646117385672
1.2446609144772
1.21604322460696
1.17628895135272
1.12228840182023
1.0503778836074
0.962781771909394
0.874671485388502
0.830924611250007
0.839991389549962
0.857664003788179
0.901273534269683
0.916797872038947
0.937461161087657
0.939789476299818
0.96205163702492
0.980395319602575
0.990823977934528
0.995927732526579
0.998797114246134
1.00144268373891
1.00345552924834
1.00515712020837
1.00648640690559
1.00751249022495
1.00830887891232
1.00896669065659
1.00949591248399
1.00996583417969
1.01038467076459
1.01082543592706
1.01133083457375
1.01191968346453
1.01260979240533
1.01339842975127
1.01426616330908
1.01516526472005
1.01600159920456
1.01677241810857
1.01743804271727
1.01797060404709
1.01832218896256
1.01846690247518
1.01843857916701
1.0176164929359
1.01764341008916
1.01783739722416
1.01856293554668
1.01965644463715
1.02116531133536
1.02301957255356
1.02521020766954
1.02770204172348
1.0304793628161
1.03352121025871
1.03681313651332
1.04033968807218
1.04408739462557
1.04804234329078
1.05219089712742
1.05651886483968
1.06101172851815
1.06565442299216
1.0704314321743
1.07532682959019
1.08032445847059
1.08540802867739
1.09056125019942
1.09576797944432
1.10101237034036
1.10627901595491
1.11155308211033
1.11682042589091
1.12206769909635
1.12728243352248
1.13245310819429
1.13756919829993
1.1426212060447
1.14760067495188
1.15250018855444
1.1573133554483
1.16203478223663
1.16666003661072
1.17118560198681
1.17560882637258
1.17992786588871
1.18414162665301
1.18824970357022
1.19225232100405
1.19615027181133
1.19994486220154
1.20363785298813
1.20723141498517
1.2107280692313
1.21413066680089
1.21744231026804
1.22066637602233
1.22380641051919
1.22686623000047
1.22984970038068
1.23276104063882
1.2356043315409
1.23838427295843
1.24110503717945
1.24377206474271
1.24638933989894
1.2489637396929
1.25149830243496
1.25400299200799
1.25647783286301
1.25893984386441
1.26138044953608
1.26383343965862
1.2662670025565
1.26875593086779
1.27120632775362
1.27379048613757
1.27625711408037
1.27901043904853
1.28140567103465
1.28439087331765
1.28714626539932
1.29021905474331
1.29326003083706
1.29638217205379
1.29943979800022
1.30238879030183
1.30514009393932
1.30749638296934
1.30931319717207
1.31045447286058
1.31075579142352
1.31014088063525
1.30850561425623
1.30602786861187
1.30277391404827
1.29853916412013
1.29301886417902
1.28596877476587
1.27629189170021
1.26313786459036
1.24285471956707
1.21393746720452
1.17395732501397
1.11996584010747
1.04871924433876
0.963085706942818
0.878275998060426
0.836087389494746
0.844024837983045
0.860074509814277
0.90212716171201
0.917439043952409
0.938035362140528
0.940661871260143
0.962722620255325
0.980593670572841
0.990644760206967
0.995850506363743
0.998740319271141
1.00138328392096
1.0034038163892
1.00511393548908
1.00645724291608
1.00749807183233
1.00830605116445
1.00897336330581
1.00950942692045
1.00998340970555
1.01040289101522
1.01083860761324
1.0113328744928
1.01190550449986
1.01257485418874
1.01333973651861
1.01418268819019
1.01505992204793
1.01588059597165
1.01663930877859
1.01729686903486
1.01782503696346
1.01817440955675
1.01831826173371
1.01828487454584
1.0175420631546
1.01759838320974
1.01781808951925
1.01856366907569
1.01966861765453
1.02118372542802
1.02303964499487
1.0252290569433
1.02771731972024
1.03048946150344
1.03352482157858
1.03680928213304
1.04032756287761
1.0440663734244
1.04801192072756
1.05215068069363
1.0564685563985
1.06095112528985
1.06558341406628
1.07034999737744
1.0752350363783
1.08022245887175
1.08529605277539
1.09043960201904
1.09563703153153
1.10087255752422
1.10613082841784
1.11139705802509
1.11665714372733
1.12189776981677
1.12710649280482
1.13227180883903
1.13738320297423
1.14243118045973
1.14740728158319
1.15230408096838
1.15711517329333
1.1618351469197
1.16645954767969
1.17098483419329
1.17540832742422
1.17972815481
1.18394319278175
1.18805300606445
1.19205778890407
1.19595830448491
1.19975583029219
1.20345209958973
1.20704925719407
1.21054980079562
1.2139565580756
1.21727261149247
1.22050132513663
1.22364622942787
1.22671112743444
1.22969987503902
1.23261668914567
1.23546564639053
1.23825145553947
1.24097828685953
1.2436516085198
1.24627539741649
1.24885659236675
1.25139819747973
1.25391031169001
1.25639283841918
1.25886310328653
1.26131217460813
1.26377461997487
1.26621752988324
1.26871734783087
1.27117749212167
1.2737744532514
1.27625028835216
1.27901900537005
1.28142340972418
1.28441430737412
1.28714333784848
1.29019145686789
1.2931993623851
1.2962870997922
1.29930332030319
1.30220319121611
1.30489306183773
1.30717700206895
1.30891695169298
1.30997895772705
1.31020257369338
1.30951673983417
1.30782463543139
1.30529850536957
1.30198399325734
1.29766831183796
1.29204108023169
1.28483850229584
1.27494568086326
1.26147898098352
1.24084506069276
1.21161547663321
1.1714088580099
1.11745341532139
1.04693792344246
0.963346161403988
0.881859553025457
0.841253105043698
0.848169783351489
0.862702183412856
0.903157800651922
0.918184000362201
0.938685550570884
0.941597713471725
0.96347267311356
0.980905478374238
0.990506450002664
0.995766390507291
0.998683940131206
1.00132525569547
1.00335258268337
1.00507016818643
1.00642717287963
1.00748332785296
1.0083035842875
1.00898114616165
1.00952453723602
1.01000276296973
1.01042274317282
1.01085272236596
1.01133444190214
1.01188894080159
1.01253521974636
1.01327382028227
1.01408931502696
1.01494197263755
1.01574472639267
1.01648928259477
1.01713679371639
1.01765868529669
1.01800495732436
1.01814958707334
1.01811714321697
1.01746272416319
1.01754869022688
1.01779699437599
1.01856308852979
1.01967981573325
1.02120105066593
1.02305836961361
1.02524613585897
1.02773031950421
1.0304967037886
1.03352495597622
1.03680130133888
1.0403106471156
1.04403989011895
1.04797536285276
1.05210365767515
1.05641077573086
1.0608823936269
1.06550363153113
1.07025915766232
1.0751332248086
1.08010984773236
1.08517289423026
1.09030622401055
1.09549383212962
1.10071999855789
1.10596942840098
1.11122738464843
1.11647980601248
1.12171341015645
1.12691577902473
1.13207542644044
1.13718184771395
1.14222555136067
1.14719807449255
1.15209198272518
1.15690085656791
1.16161926574688
1.166242733709
1.1707676936318
1.17519143868428
1.17951206677785
1.18372842374495
1.18784004315642
1.19184708812958
1.19575029114156
1.19955089991096
1.20325061909444
1.20685156653885
1.21035621551333
1.21376736975645
1.21708809175897
1.22032172920221
1.22347179503851
1.22654208135537
1.22953643414918
1.23245906756292
1.23531405355624
1.23810610887223
1.24083940184505
1.24351942698566
1.24615015421782
1.2487385815857
1.25128767968573
1.2538076771205
1.25629835747873
1.25877734266379
1.26123534233169
1.2637076696453
1.26616033935744
1.2686714033624
1.27114158886286
1.27375151399161
1.27623667492374
1.27902072968079
1.28143413522464
1.28443319795633
1.28713517783684
1.29015631518056
1.29312652296427
1.29617423221597
1.29914260627831
1.30198635415277
1.30460771429519
1.30681208534466
1.30846789118241
1.30944357705222
1.30958296510478
1.30882027223827
1.30706508285957
1.30448311916621
1.30109959583011
1.29669347018718
1.29094755069211
1.28357781461343
1.2734512294135
1.25965433076313
1.23865651514677
1.20910809139421
1.16868216294761
1.11479791234692
1.04508452677798
0.963603688215815
0.885437938249039
0.846405545828022
0.852374389010669
0.865475115714533
0.904334554397958
0.919019480097188
0.939400667016225
0.942574244610783
0.964269982033453
0.981308522161455
0.990439036004257
0.99567452276652
0.998629882103728
1.00126748734802
1.00330175873735
1.00502591031256
1.0063962791961
1.00746842857939
1.00830175701539
1.00899043820089
1.00954172121462
1.01002440696497
1.01044476913563
1.01086842405965
1.0113364521995
1.01187133628135
1.01249278071711
1.01320318138003
1.01398913611701
1.01481494222621
1.01559766441363
1.01632602830019
1.0169615577778
1.01747562713339
1.01781849130407
1.01796613745108
1.01793947018213
1.01737771138887
1.01749298144491
1.01777256975608
1.01855957245915
1.01968869324043
1.0212161977423
1.02307495294047
1.02526092157009
1.02774078165283
1.03050107555184
1.03352183337802
1.03678963616325
1.04028959556786
1.04400880200469
1.04793372071272
1.05205106405691
1.05634693718451
1.06080711942231
1.06541682649552
1.07016082307573
1.07502345632199
1.07998882953961
1.08504089188361
1.09016358019965
1.09534096084302
1.10055737863725
1.10579759639248
1.11104692723244
1.11629135209545
1.12151762285016
1.12671334764068
1.13186705865837
1.13696826208263
1.14200747021768
1.14697621742739
1.15186706064457
1.15667356642878
1.16139028598072
1.16601272036317
1.17053727720525
1.17496122167381
1.17928262184845
1.18350029257519
1.18761373579874
1.19162308297229
1.19552903527596
1.19933281001122
1.20303608249333
1.20664094391713
1.21014984038054
1.21356555207994
1.21689112157102
1.2201298772748
1.22328531577269
1.22636121766575
1.22936141827246
1.23229012787377
1.23515141334854
1.2379499981202
1.24069004837173
1.24337708271973
1.24601506416616
1.24861104560912
1.25116796479679
1.25369617102567
1.2561953303953
1.25868334295642
1.26115056300872
1.26363299965054
1.26609562534843
1.26861803204186
1.27109828709024
1.2737210075648
1.27621526473036
1.27901420704046
1.28143551517877
1.28444501542671
1.28712006765451
1.29011304450689
1.2930421263972
1.2960451823918
1.29896015100544
1.3017416056918
1.304288245909
1.30640672262748
1.30797195370104
1.30885502151289
1.30890426913814
1.3080591803486
1.30623477671015
1.30358943318689
1.30012836436663
1.29562228500356
1.28974614797095
1.28219522472776
1.27181854106821
1.25767671574007
1.23630582297829
1.20643678895171
1.16580459938826
1.11203251443228
1.04319399944355
0.963884352955059
0.889019054336488
0.85153588616754
0.856613962430355
0.868350735427686
0.905627178350966
0.919933523938148
0.940170832474793
0.943578104005662
0.965078711329579
0.981786445151383
0.990464617701719
0.995573258070667
0.998587497322358
1.00120893956184
1.00325114428131
1.00498137720046
1.00636479386183
1.00745366828822
1.00830094107966
1.00900169525431
1.00956149157062
1.01004889515213
1.01046958244706
1.01088647103182
1.01133994292317
1.01185407602584
1.01244929941861
1.0131299464902
1.01388459482449
1.01468147877907
1.01544209555513
1.01615225692976
1.01677402129251
1.0172790699597
1.01761849782564
1.01777135599926
1.01775400497049
1.01728650904348
1.01743063672782
1.01774401248823
1.01855223187733
1.01969448663628
1.02122851797939
1.02308890905071
1.02527308549426
1.02774854261873
1.03050257398546
1.03351561120675
1.03677460126754
1.04026487748805
1.04397373006008
1.04788776261673
1.05199381380482
1.05627809777675
1.06072649945841
1.06532433234689
1.0700564597679
1.07490732476381
1.07986111997273
1.08490187681668
1.0900136100231
1.09518045787554
1.10038683067183
1.10561754955551
1.11085797844112
1.1160941411816
1.12131282457346
1.12650166370835
1.1316492099078
1.13674498098499
1.1417794937803
1.14674428062633
1.15163189044218
1.15643587644443
1.16115077184032
1.16577205575545
1.17029611062483
1.1747201738715
1.17904228390038
1.18326122463747
1.18737646636639
1.1913881087568
1.19529682149066
1.19910379111387
1.20281066372248
1.20641950241064
1.2099327264019
1.21335309247698
1.21668362122556
1.21992762202343
1.2230885747776
1.22617024760776
1.22917646456352
1.2321114309708
1.23497920815165
1.23778452455363
1.24053154378653
1.24322580555754
1.2458712658333
1.24847502651419
1.25103999336617
1.25357662445541
1.25608447217009
1.25858169018043
1.26105828660829
1.26355090399228
1.26602351637233
1.26855716481912
1.27104732305816
1.27368243594243
1.27618531604984
1.2789984635908
1.28142595433978
1.28444778482576
1.28709639434217
1.29006074152977
1.29294616775817
1.29590073755913
1.29875744998394
1.30147109821368
1.30393747349433
1.30596440779962
1.3074332830325
1.30821801523512
1.3081716697792
1.30723891793824
1.3053392093936
1.30262281635785
1.29907554344511
1.29445990565941
1.28844208455937
1.28069635672602
1.27005437011808
1.25555509744103
1.23380513314341
1.20361773576304
1.16279749459399
1.10918364011482
1.04129402375161
0.964208124485511
0.892608274188287
0.856638277292231
0.860874435899344
0.871306315974673
0.907014688290402
0.92091801097397
0.940988021057626
0.944604568136405
0.965859655382271
0.982323984251762
0.990590746042055
0.995471509387898
0.998569099181665
1.00115064355773
1.00320042194503
1.00493693432291
1.00633313659701
1.00743946915182
1.00830157630045
1.00901539099336
1.00958435895319
1.01007678457089
1.01049780446633
1.0109076087939
1.01134586766234
1.01183834071565
1.01240618796361
1.01305573925447
1.01377750166005
1.01454353069152
1.01528002356633
1.01597005873274
1.0165764583346
1.01707154489658
1.01740758387207
1.01756763450818
1.01756222931288
1.01718909575178
1.01736150023827
1.0177108914831