/*--------------------------------*- C++ -*----------------------------------*\
| =========                 |                                                 |
| \\      /  F ield         | OpenFOAM: The Open Source CFD Toolbox           |
|  \\    /   O peration     | Version:  4.1                                   |
|   \\  /    A nd           | Web:      www.OpenFOAM.org                      |
|    \\/     M anipulation  |                                                 |
\*---------------------------------------------------------------------------*/
FoamFile
{
    version     2.0;
    format      ascii;
    class       surfaceScalarField;
    location    "30000";
    object      phi;
}
// * * * * * * * * * * * * * * * * * * * * * * * * * * * * * * * * * * * * * //

dimensions      [0 3 -1 0 0 0 0];

internalField   nonuniform List<scalar> 
41710
(
2.21303704596204e-05
-1.4792976818001e-06
2.32746072569749e-05
-1.14423679735765e-06
9.52160762616098e-06
1.3752999630813e-05
-4.65434413739865e-06
1.41759517635647e-05
-9.96124910284462e-06
5.30690496543548e-06
-8.6181873398782e-06
-1.34306176296636e-06
-6.35183682835604e-06
-2.26635051151731e-06
-5.29018921518119e-06
-1.06164761317898e-06
-4.58673720398608e-06
-7.03452011201183e-07
-4.04509503423379e-06
-5.41642169755647e-07
-3.57995832158316e-06
-4.6513671264955e-07
-3.21384899954233e-06
-3.66109322048534e-07
-3.00854499064834e-06
-2.05304008886698e-07
-2.96961746042752e-06
-3.89275302187857e-08
-3.10003323089917e-06
1.3041577046433e-07
-3.45929769945113e-06
3.59264468548594e-07
-4.06445211361751e-06
6.05154414163782e-07
-4.93964259627523e-06
8.75190482653038e-07
-6.00366253964852e-06
1.06401994337039e-06
-7.16334101994185e-06
1.15967848030263e-06
-8.36353164555103e-06
1.20019062561078e-06
-9.51209659576795e-06
1.14856495023413e-06
-1.04904561284971e-05
9.78359532724113e-07
-1.1176472878188e-05
6.86016749702603e-07
-1.15407500370554e-05
3.64277158878801e-07
-1.16932607950135e-05
1.52510757943832e-07
-1.15619108549951e-05
-1.31349940026732e-07
-1.11309929451819e-05
-4.3091790982351e-07
-1.04886012870511e-05
-6.42391658122754e-07
-9.88062163579437e-06
-6.07979651241722e-07
-9.4522113065812e-06
-4.28410329207342e-07
-1.02878278338792e-05
8.35616527322185e-07
-1.61958959972689e-05
5.9080681633984e-06
-2.23450881238717e-05
6.1491921266054e-06
-2.78377815276957e-05
5.49269340382973e-06
-3.25834513822607e-05
4.74566985456469e-06
-3.67028620046626e-05
4.11941062239358e-06
-4.02476134063309e-05
3.54475140166801e-06
-4.33310693522082e-05
3.08345594585788e-06
-4.60204615666701e-05
2.6893922144453e-06
-4.83821734811047e-05
2.36171191443057e-06
-5.04571752823357e-05
2.0750018012025e-06
-5.22785124676796e-05
1.8213371853342e-06
-5.38668818492587e-05
1.58836938158356e-06
-5.52376086147807e-05
1.37072676552193e-06
-5.64004908502653e-05
1.16288223547698e-06
-5.73627357691712e-05
9.62244918909614e-07
-5.81294839473994e-05
7.66748178246307e-07
-5.87050842359479e-05
5.75600288551586e-07
-5.90933886280286e-05
3.88304392081329e-07
-5.92982155702847e-05
2.04826942243194e-07
-5.93234659015228e-05
2.52503312367148e-08
-5.91737096826614e-05
-1.49756218857217e-07
-5.88545445324842e-05
-3.19165150162988e-07
-5.8372426943332e-05
-4.82117589159152e-07
-5.77346226458845e-05
-6.37804297454838e-07
-5.69491419827744e-05
-7.85480663105557e-07
-5.60246623705316e-05
-9.24479612249658e-07
-5.49704354638321e-05
-1.0542269066766e-06
-5.37961793735453e-05
-1.17425609027478e-06
-5.25119648230234e-05
-1.28421455051231e-06
-5.1128097847657e-05
-1.38386697538649e-06
-4.96550046765783e-05
-1.47309317105311e-06
-4.81031214509652e-05
-1.55188322560016e-06
-4.64827912914881e-05
-1.62033015947764e-06
-4.48041715051222e-05
-1.67861978637277e-06
-4.30771514061518e-05
-1.727020098983e-06
-4.13112821661769e-05
-1.76586923998257e-06
-3.95157187270932e-05
-1.79556343908788e-06
-3.76991740696069e-05
-1.81654465748275e-06
-3.58698850440483e-05
-1.82928902556872e-06
-3.40355898322389e-05
-1.83429521182183e-06
-3.22035150447578e-05
-1.83207478747927e-06
-3.03803735516812e-05
-1.82314149308817e-06
-2.85723687405477e-05
-1.80800481113313e-06
-2.67852089823459e-05
-1.78715975820225e-06
-2.50241256843572e-05
-1.76108329798629e-06
-2.3293900697889e-05
-1.7302249864726e-06
-2.15988931873049e-05
-1.69500751054442e-06
-1.994307978639e-05
-1.65581340090889e-06
-1.83300831874443e-05
-1.61299659895626e-06
-1.67632314309466e-05
-1.56685175650598e-06
-1.52455731510253e-05
-1.51765827991426e-06
-1.3779977740019e-05
-1.46559541099117e-06
-1.23691074216608e-05
-1.41087031837286e-06
-1.10155956844576e-05
-1.35351173718995e-06
-9.72193351092797e-06
-1.29366217352322e-06
-8.49081084361081e-06
-1.23112266728519e-06
-7.32477670709245e-06
-1.16603413650313e-06
-6.22699724072768e-06
-1.09777946635124e-06
-5.20035021485461e-06
-1.02664702586837e-06
-4.24908131292919e-06
-9.51268901929036e-07
-3.37665763829435e-06
-8.72423674647963e-07
-2.58952245132982e-06
-7.87135186981476e-07
-1.89172739611792e-06
-6.97795055222072e-07
-1.29404779974005e-06
-5.97679596353073e-07
-8.00324519549189e-07
-4.93723280179458e-07
-4.29903653191356e-07
-3.7042086634284e-07
-1.82858551452392e-07
-2.47045101770032e-07
-9.62612638899843e-08
-8.65972875541837e-08
-1.5622279289675e-07
5.99615289868836e-08
-4.39489165566772e-07
2.83266372664032e-07
-8.86964514723534e-07
4.47475349146528e-07
-1.66197486302429e-06
7.75010348290123e-07
-2.57286192498652e-06
9.10887062004126e-07
-3.96287619800501e-06
1.39001427301489e-06
-5.29927974471631e-06
1.33640354673478e-06
-7.64712202365848e-06
2.34784227892972e-06
-8.20273534352863e-06
5.55613319854087e-07
-8.16327481151167e-06
-3.94605320072771e-08
-7.27139900336764e-06
-8.91875808106851e-07
-5.84989951077863e-06
-1.42149949258119e-06
-3.93749651226497e-06
-1.91240299850063e-06
-1.64672612781083e-06
-2.29077038445368e-06
9.89205397254506e-07
-2.63593152506953e-06
4.09675629276716e-06
-3.10755089550732e-06
7.52110348498752e-06
-3.42434719222093e-06
1.10933634090174e-05
-3.57225992401364e-06
1.47344697237494e-05
-3.64110631472889e-06
1.83318830134875e-05
-3.59741328973799e-06
2.17700551241641e-05
-3.43817211068999e-06
2.46564431882035e-05
-2.88638806405393e-06
2.69096131468609e-05
-2.25316995864864e-06
2.88360380056631e-05
-1.92642485881483e-06
3.06306664240416e-05
-1.7946284183797e-06
3.23977773559052e-05
-1.76711093186776e-06
3.45004977882365e-05
-2.10272043234327e-06
3.72864177620931e-05
-2.78591997385308e-06
4.20405485606656e-05
-4.75413079859071e-06
4.85188149455498e-05
-6.47826638487898e-06
5.69250103023835e-05
-8.40619535683427e-06
6.81120237431949e-05
-1.1187013440816e-05
8.32890214719152e-05
-1.51769977287194e-05
0.000101801752798677
-1.85127313267698e-05
0.000115146606754445
-1.33448539557653e-05
0.000104390507576842
1.07560991776186e-05
7.3904167613639e-05
3.04863399632009e-05
4.49095425506025e-05
2.8994625063035e-05
2.29067577787836e-05
2.20027847718171e-05
2.25568500097464e-06
7.94448090927179e-05
-1.72592376050937e-06
7.85065548627216e-05
-2.05982567363136e-07
4.23962518546156e-05
4.98633026389179e-05
-1.90138455503487e-06
5.84735881732146e-05
-2.42539741051996e-05
2.76594945156032e-05
-2.43193050577887e-05
-1.27773081035883e-06
-1.867699595919e-05
-7.90865961010944e-06
-1.5559127062702e-05
-4.17951650965318e-06
-1.35988072381201e-05
-2.66377183578582e-06
-1.2078572250199e-05
-2.06187715769461e-06
-1.08168312650702e-05
-1.72687769777279e-06
-9.84690845164078e-06
-1.33603213548522e-06
-9.34053700321852e-06
-7.11675457323269e-07
-9.32267069592657e-06
-5.67938375026904e-08
-9.82463747146166e-06
6.32382545981163e-07
-1.09935559275641e-05
1.52818292467262e-06
-1.28905192066655e-05
2.50211769325364e-06
-1.55384368377744e-05
3.52310811374168e-06
-1.87139384389663e-05
4.23952154457597e-06
-2.21557506751359e-05
4.60149071652848e-06
-2.56957287561032e-05
4.74016870658361e-06
-2.90877153485442e-05
4.54055154269248e-06
-3.20266951825777e-05
3.91733936676641e-06
-3.42318493952627e-05
2.89117096238579e-06
-3.56590367514193e-05
1.7914645150411e-06
-3.65216019642575e-05
1.01507597081151e-06
-3.66775230697268e-05
2.45711654629811e-08
-3.60988892195507e-05
-1.00955175998378e-06
-3.50702344508733e-05
-1.6710464268273e-06
-3.42565579893332e-05
-1.42165611282418e-06
-3.45708251991234e-05
-1.141431194023e-07
-3.97112902445348e-05
5.97608157273957e-06
-5.60500073147938e-05
2.22467852336317e-05
-7.31325785031072e-05
2.32317633149088e-05
-8.7863023223384e-05
2.02231381241346e-05
-0.000100410744382761
1.72933910139408e-05
-0.000111078824809067
1.47874910487203e-05
-0.000120158918846372
1.26248454389399e-05
-0.0001279485528891
1.08730899885987e-05
-0.000134662571367722
9.40341069304076e-06
-0.000140472283732726
8.17142427944957e-06
-0.000145494335798678
7.0970538671766e-06
-0.000149814596503011
6.14159788965641e-06
-0.000153491085949784
5.26485882833159e-06
-0.000156565680961089
4.44532177682977e-06
-0.00015906767127488
3.66487254927556e-06
-0.000161019310090321
2.91388373433147e-06
-0.000162438233952815
2.18567204074681e-06
-0.000163340132105535
1.47749844129604e-06
-0.000163739878918558
7.88051205120039e-07
-0.00016365212765932
1.17075682991328e-07
-0.000163090675611056
-5.36201717030178e-07
-0.000162070890203171
-1.16954162672766e-06
-0.00016061116129958
-1.778894053749e-06
-0.000158731644150242
-2.36163473846677e-06
-0.00015645414434579
-2.91530410194057e-06
-0.000153801965944498
-3.43765906441805e-06
-0.000150799710109187
-3.92673544756572e-06
-0.000147473042452045
-4.38089456380955e-06
-0.000143848435312191
-4.79886323013994e-06
-0.000139952901559029
-5.17974830369354e-06
-0.0001358137275154
-5.52304101903318e-06
-0.000131458215424373
-5.82860526211872e-06
-0.000126913441204186
-6.09665744579046e-06
-0.000122206032274759
-6.32773908892068e-06
-0.000117361970283386
-6.52268177771929e-06
-0.000112406419570191
-6.68257081215545e-06
-0.000107363583442989
-6.80870536715214e-06
-0.000102256588071998
-6.90255881009337e-06
-9.7107393932163e-05
-6.96573879729254e-06
-9.19367330663795e-05
-6.99994989131031e-06
-8.67640715511461e-05
-7.00695672704504e-06
-8.16075935877565e-05
-6.9885527508745e-06
-7.6484207956051e-05
-6.94652712480005e-06
-7.14095699379753e-05
-6.8826428291802e-06
-6.63981237568471e-05
-6.7986059393518e-06
-6.14631550380229e-05
-6.6960520167935e-06
-5.6616861119384e-05
-6.57651890512727e-06
-5.18704250191995e-05
-6.44144361073287e-06
-4.72341115658208e-05
-6.29212685429533e-06
-4.27173525089841e-05
-6.12975565577368e-06
-3.8328875887934e-05
-5.95532837757735e-06
-3.40767829632759e-05
-5.76975120460354e-06
-2.99687407908775e-05
-5.57363758335761e-06
-2.60120140520459e-05
-5.36759705719823e-06
-2.22137680174838e-05
-5.15175777169862e-06
-1.85810212662192e-05
-4.92640892479072e-06
-1.51211577669048e-05
-4.69098616663271e-06
-1.18416552307067e-05
-4.44553667278073e-06
-8.75110189568975e-06
-4.18833280144585e-06
-5.8583393390437e-06
-3.91940958250549e-06
-3.17456534120627e-06
-3.63504289976741e-06
-7.11106580532005e-07
-3.33588243530038e-06
1.5158363317671e-06
-3.01407809925046e-06
3.49109036740688e-06
-2.67304909083483e-06
5.18945801919304e-06
-2.2960472481843e-06
6.59108472687341e-06
-1.89534998788342e-06
7.6544942594605e-06
-1.43383039896066e-06
8.35659636702103e-06
-9.49147209319292e-07
8.62660109088319e-06
-3.56602011410823e-07
8.44813152210484e-06
2.38431097742583e-07
7.68902047896716e-06
1.04237741579502e-06
6.36542540442458e-06
1.7710704237139e-06
4.22929496526942e-06
2.91114078740037e-06
1.44324740003788e-06
3.69693462723156e-06
-2.44261771038986e-06
5.27587938342193e-06
-6.88088737960252e-06
5.77467321590555e-06
-1.29985264618941e-05
8.46548136126337e-06
-1.46041908318483e-05
2.16127768981493e-06
-1.3957357479181e-05
-6.86293884678936e-07
-1.12301289358309e-05
-3.61910435148098e-06
-7.07546171480676e-06
-5.57616671362024e-06
-1.76494844957718e-06
-7.22291626371696e-06
4.46708366179171e-06
-8.52280249585049e-06
1.15550590949771e-05
-9.72390695828926e-06
1.97348426653371e-05
-1.12873344658798e-05
2.86383274464998e-05
-1.23278319733547e-05
3.78830362609253e-05
-1.28169687384468e-05
4.72707750308008e-05
-1.30288450846416e-05
5.65660984438609e-05
-1.28927367028104e-05
6.54550482714376e-05
-1.23271219382571e-05
7.3095912416179e-05
-1.05272522087615e-05
7.92464196162405e-05
-8.40367715869758e-06
8.44949416562032e-05
-7.17494689879495e-06
8.92997678629284e-05
-6.5994546251184e-06
9.40094096023271e-05
-6.47675267128042e-06
9.93863051448853e-05
-7.47961597487584e-06
0.000106475494662733
-9.8751094916946e-06
0.000117940055809616
-1.62186919454871e-05
0.000133794135161037
-2.2332345736265e-05
0.000154578006573792
-2.91900667695996e-05
0.00018211192034573
-3.8720927212755e-05
0.000218936566299898
-5.20016436828922e-05
0.000264107510201944
-6.36836752288141e-05
0.000301145113763468
-5.03824575172959e-05
0.000290960302276676
2.09409106644134e-05
0.000230653287913871
9.07933543260025e-05
0.000156801253355588
0.000102846659621317
9.5895089171871e-05
8.29089489555196e-05
1.89525911588395e-05
0.00015282990940183
4.94403549675934e-06
0.000146245753971222
6.37817286327097e-06
9.05581340810495e-05
0.000105550922529089
1.40865954009063e-05
0.00013494512685336
-3.25349846735068e-05
7.42810745900124e-05
-3.88144505618788e-05
5.00173507801971e-06
-3.10940470381006e-05
-1.56290631338748e-05
-2.60159323127715e-05
-9.25763123498156e-06
-2.28695738284902e-05
-5.81013032006207e-06
-2.04337076423448e-05
-4.4977433438429e-06
-1.8443720563179e-05
-3.71686477690682e-06
-1.6941809237017e-05
-2.83794346164623e-06
-1.6204596973391e-05
-1.44888772093392e-06
-1.62876168664834e-05
2.62260555745065e-08
-1.72606126633248e-05
1.6053783428297e-06
-1.93443429489336e-05
3.61191321028137e-06
-2.26407271899043e-05
5.79850193417965e-06
-2.714233586152e-05
8.0247167853892e-06
-3.24869284346409e-05
9.58411411771691e-06
-3.82531153652835e-05
1.03676776471515e-05
-4.41571618977242e-05
1.06442152390275e-05
-4.98187035817724e-05
1.02020932267165e-05
-5.47909203597359e-05
8.88955614471371e-06
-5.87067339319633e-05
6.80698453456646e-06
-6.1544870722088e-05
4.62960130515081e-06
-6.35788688636943e-05
3.04907411244126e-06
-6.46449253437154e-05
1.09062764547625e-06
-6.4738853173751e-05
-9.15623929946123e-07
-6.43482464843169e-05
-2.06165311624049e-06
-6.45675933758901e-05
-1.20230922119224e-06
-6.75052547967355e-05
2.82351830144759e-06
-7.87644043285974e-05
1.72352311046022e-05
-0.00010442675397636
4.79091348814122e-05
-0.000130696375517534
4.9501384856097e-05
-0.000152776348484002
4.23031110905963e-05
-0.00017121430357927
3.57313461091458e-05
-0.000186599919586815
3.01731070562461e-05
-0.000199505837819556
2.55307636717133e-05
-0.000210406681400872
2.17739335699043e-05
-0.000219651934134815
1.86486634269975e-05
-0.000227500163842719
1.60196539873381e-05
-0.000234131406316493
1.37282963409106e-05
-0.000239675085103609
1.16852766767757e-05
-0.000244221812726499
9.81158645122067e-06
-0.000247837970618587
8.0614796689111e-06
-0.000250572752723279
6.39965465400334e-06
-0.000252465203671451
4.80633468248164e-06
-0.000253548098288391
3.26856665766387e-06
-0.000253851543317466
1.78094347038641e-06
-0.000253404971762087
3.41479649737418e-07
-0.00025223569140646
-1.05220467263741e-06
-0.000250370500903333
-2.40139222015579e-06
-0.000247839654531907
-3.70038799815589e-06
-0.000244675995562583
-4.94255302309388e-06
-0.000240914038777507
-6.12359152353318e-06
-0.000236589961541875
-7.23938133756707e-06
-0.000231741364175223
-8.28625643107474e-06
-0.000226406987415534
-9.26111220726375e-06
-0.000220626400172382
-1.01614818069845e-05
-0.000214439668906522
-1.09855944959958e-05
-0.000207887026858804
-1.17323903513985e-05
-0.000201008552394438
-1.24015154833999e-05
-0.000193843867042017
-1.29932906145339e-05
-0.000186431858917783
-1.3508665570033e-05
-0.000178810435835054
-1.39491621716497e-05
-0.000171016312097845
-1.43168055149095e-05
-0.000163084828918046
-1.46140539919655e-05
-0.000155049809606998
-1.48437246782325e-05
-0.000146943448487025
-1.50089199300738e-05
-0.000138796232535144
-1.51129547491798e-05
-0.000130636893339338
-1.51592890871775e-05
-0.000122492387954834
-1.51514621115361e-05
-0.000114387904741148
-1.5093035964566e-05
-0.000106346894069398
-1.49875377965521e-05
-9.83911172679822e-05
-1.4838419630603e-05
-9.05407180757385e-05
-1.46490051316059e-05
-8.28143065815422e-05
-1.44224635109968e-05
-7.52290623597314e-05
-1.41617631269049e-05
-6.78008449178192e-05
-1.38696610526775e-05
-6.05443260506707e-05
-1.35486457214727e-05
-5.34731192230362e-05
-1.3200962483423e-05
-4.65999468343464e-05
-1.28285007662464e-05
-3.9936776560307e-05
-1.24329214786382e-05
-3.34950480935815e-05
-1.20153660500999e-05
-2.72857952448467e-05
-1.15768499059063e-05
-2.13199689971654e-05
-1.11175840194365e-05
-1.56085483386263e-05
-1.06378295833297e-05
-1.01630167761691e-05
-1.01365177290697e-05
-4.99539633931695e-06
-9.61315710961781e-06
-1.189732145756e-07
-9.06475592618885e-06
4.45158791708397e-06
-8.48997071413738e-06
8.69886973063982e-06
-7.88232471340587e-06
1.26038757283018e-05
-7.24088843295253e-06
1.61422008893762e-05
-6.55240326031055e-06
1.92873303626745e-05
-5.81817856413007e-06
2.20026039755377e-05
-5.01132086104352e-06
2.42503780487427e-05
-4.14312406108283e-06
2.59732026108542e-05
-3.1566549610554e-06
2.71189266465695e-05
-2.09487124505002e-06
2.7596471228824e-05
-8.34146593649896e-07
2.73436606936906e-05
4.91241632930775e-07
2.62023752108693e-05
2.18366289855835e-06
2.40959085675423e-05
3.87753706707737e-06
2.07559886107332e-05
6.25106074422954e-06
1.61796311112403e-05
8.27329212669083e-06
9.96269566853455e-06
1.14928148261506e-05
2.33346357808625e-06
1.34039053063502e-05
-6.84989013471358e-06
1.76488350740549e-05
-9.18650711400839e-06
4.49789466906588e-06
-7.59691526021903e-06
-2.27588573850317e-06
-3.05635418690606e-06
-8.15966542481619e-06
3.48330684533352e-06
-1.21158277458341e-05
1.15500262386067e-05
-1.52896356569992e-05
2.0866147513807e-05
-1.78389237710103e-05
3.13950289954653e-05
-2.02527884399712e-05
4.34250394170758e-05
-2.33173448874853e-05
5.64867812467814e-05
-2.53895738030846e-05
7.00866188181727e-05
-2.64168063098325e-05
8.39410278935088e-05
-2.68832541599885e-05
9.77365207272264e-05
-2.66882295365074e-05
0.000111000432717037
-2.55910339280661e-05
0.00012263655376913
-2.2163373260849e-05
0.000132248066345219
-1.80151897347889e-05
0.000140498625755454
-1.54255063089785e-05
0.000148007110517934
-1.41079393875665e-05
0.000155336952373977
-1.38065945273166e-05
0.000163505832190103
-1.56484957909944e-05
0.00017414331906079
-2.05125963623693e-05
0.000190696584737478
-3.27719576221393e-05
0.000213635857572122
-4.5271618570916e-05
0.000243693264948422
-5.92474741458847e-05
0.000282999178559484
-7.80268408238263e-05
0.000334387105590729
-0.000103389570714131
0.000396584126624078
-0.00012588069626218
0.000451321619311112
-0.000105119950204331
0.000453074865060414
1.91876649151178e-05
0.000387708917228799
0.000156159302157607
0.000288114175082337
0.000202441401767784
0.000196245719273515
0.00017477740476436
5.5698441773264e-05
0.00024085385021279
2.29415736554145e-05
0.000225991915521308
2.12401075547506e-05
0.000153643418559268
0.000177899419491133
4.48792575802547e-05
0.000243709287832373
-3.29087010481574e-05
0.00015206903321841
-5.13456274290489e-05
2.34386614589357e-05
-4.33449013178783e-05
-2.36297892450488e-05
-3.65253611139998e-05
-1.60771714388427e-05
-3.2279730210071e-05
-1.00557612239849e-05
-2.90318853914792e-05
-7.74558816239933e-06
-2.64099023946483e-05
-6.33884777374325e-06
-2.44786603181034e-05
-4.769185538172e-06
-2.36081266321446e-05
-2.31942140688315e-06
-2.3896654717102e-05
3.14754140534018e-07
-2.54562469256613e-05
3.16497055140277e-06
-2.85729292096811e-05
6.72859549433586e-06
-3.33736284220953e-05
1.05992011465962e-05
-3.97984697778478e-05
1.44495581411531e-05
-4.73449109281102e-05
1.71305552679897e-05
-5.54429632014802e-05
1.84657299205183e-05
-6.37005939229979e-05
1.89018459605338e-05
-7.16324231952333e-05
1.81339224989908e-05
-7.87081395254453e-05
1.59652724749412e-05
-8.45460367174407e-05
1.26448817265903e-05
-8.91726668883105e-05
9.2562314760443e-06
-9.29067772589265e-05
6.7831844830873e-06
-9.55944030201028e-05
3.77825340667713e-06
-9.7289132043978e-05
7.79105093894849e-07
-9.86762560181429e-05
-6.7452914206603e-07
-0.000101320664660647
1.44209942129527e-06
-0.000108518405644645
1.00212592854568e-05
-0.000126396114107258
3.51129395672358e-05
-0.000159421873407446
8.09348941815773e-05
-0.000191986147948244
8.20656593969054e-05
-0.000218548896874223
6.88658600165736e-05
-0.000240098538727165
5.72809879620964e-05
-0.000257629608296875
4.77041766259496e-05
-0.000271984448284884
3.98856036597139e-05
-0.000283800336494017
3.35898217790334e-05
-0.000293532813059131
2.83811399920906e-05
-0.000301508345263757
2.39951861919852e-05
-0.00030795545965417
2.01754107313405e-05
-0.000313039165428412
1.67689824510486e-05
-0.000316878899260897
1.36513202837225e-05
-0.000319565238958749
1.07478193667831e-05
-0.000321168914644534
8.00333033977987e-06
-0.00032174843960977
5.38585964771566e-06
-0.000321354433654652
2.87456070253279e-06
-0.000320033072201553
4.59582017306754e-07
-0.000317829756285586
-1.86183626619236e-06
-0.00031478969135908
-4.092269599164e-06
-0.000310957373196386
-6.23371038288098e-06
-0.000306377952689449
-8.27980850510554e-06
-0.000301096924126152
-1.02235815863845e-05
-0.000295160407788218
-1.20601078614861e-05
-0.000288615089915566
-1.3784699210225e-05
-0.00028150802498164
-1.53933213650051e-05
-0.000273886408609796
-1.6882728579132e-05
-0.000265797327995188
-1.82505624215649e-05
-0.000257287503098347
-1.94954193928052e-05
-0.00024840303245905
-2.06168609907141e-05
-0.00023918915084858
-2.16153970938209e-05
-0.000229690006487544
-2.24924349755992e-05
-0.000219948461662569
-2.32502103950042e-05
-0.000210005919607389
-2.38917042268381e-05
-0.00019990218029892
-2.44205448233953e-05
-0.00018967532457757
-2.48409097133285e-05
-0.000179361627243729
-2.51574220120516e-05
-0.000168995498059099
-2.53750491147008e-05
-0.000158609449620513
-2.54990031877642e-05
-0.000148234090146959
-2.55346485607126e-05
-0.000137898139836952
-2.54874124215561e-05
-0.000127628467910265
-2.53627078912528e-05
-0.000117450149868335
-2.51658558384661e-05
-0.000107386540315079
-2.49020291838529e-05
-9.74593644006897e-05
-2.4576181046012e-05
-8.76888207312869e-05
-2.41930071804429e-05
-7.80936999371916e-05
-2.37568839210148e-05
-6.86915127981189e-05
-2.32718481917101e-05
-5.94986343816789e-05
-2.27415241379189e-05
-5.05304554967514e-05
-2.21691413683379e-05
-4.18015558958794e-05
-2.15574003671493e-05
-3.33258785671359e-05
-2.09085988073624e-05
-2.51169456426078e-05
-2.02242989746197e-05
-1.71880599799632e-05
-1.95057355685712e-05
-9.55258466293239e-06
-1.87530593364789e-05
-2.2241378682115e-06
-1.79662763780531e-05
4.78288594370721e-06
-1.71435415409902e-05
1.14530318840478e-05
-1.62833030499406e-05
1.77693816489532e-05
-1.53811056910988e-05
2.37130561910424e-05
-1.44336452562528e-05
2.92621822445337e-05
-1.34314507668669e-05
3.43915850923694e-05
-1.23702912807764e-05
3.90708529430553e-05
-1.12316711109923e-05
4.32644861072332e-05
-1.00118117283189e-05
4.69277222199363e-05
-8.67455697374537e-06
5.00085757460763e-05
-7.22397758720521e-06
5.24384873351083e-05
-5.5865665500759e-06
5.41405607419832e-05
-3.79694465191422e-06
5.50081669657778e-05
-1.7017528174519e-06
5.49338631510995e-05
5.65545447602513e-07
5.3742878365477e-05
3.37464768417072e-06
5.12706291251441e-05
6.34978630738542e-06
4.72300546590634e-05
1.02916352103023e-05
4.1438563338011e-05
1.40647834477772e-05
3.34898618520179e-05
1.94415163121913e-05
2.32775630767733e-05
2.36162040815851e-05
1.1986475679748e-05
2.89399224711159e-05
9.14218125130182e-06
7.342189097558e-06
1.15953245570128e-05
-4.72902904420535e-06
1.75160931725573e-05
-1.40804340403205e-05
2.5663288024235e-05
-2.02630225974722e-05
3.54777203083311e-05
-2.51040679411269e-05
4.66869116246508e-05
-2.90481150873405e-05
5.93141302161998e-05
-3.28800070315083e-05
7.36538401801441e-05
-3.76570548514177e-05
8.92462755748113e-05
-4.09820091977365e-05
0.000105581181703383
-4.27517124384126e-05
0.000122332018747058
-4.36340912036717e-05
0.000139147010185924
-4.35032209753428e-05
0.000155476830846041
-4.19208545881678e-05
0.000170156226448736
-3.68427688635571e-05
0.000182660661937757
-3.05196252237939e-05
0.00019355675902339
-2.63216033946161e-05
0.00020348957385502
-2.40407542191853e-05
0.000213131638712756
-2.34486593850194e-05
0.000223625192244182
-2.61420493224267e-05
0.000236910656395147
-3.37980605133608e-05
0.00025676475513576
-5.26260563627509e-05
0.000284096748156754
-7.26036115918962e-05
0.000319716978533376
-9.48677045225043e-05
0.000365546372927961
-0.000123856235218398
0.000423946124894082
-0.00016178932268024
0.000493264906911139
-0.000195199478279229
0.000557528657176008
-0.000169383700469211
0.000574830327494589
1.8859945965532e-06
0.000523002359187594
0.000207987270464604
0.000421490811929874
0.0003039529490255
0.000314048206245206
0.000282220010449011
0.00011089525964702
0.000334001544579324
5.25147984734545e-05
0.000310636702842475
4.46049492915833e-05
0.000227548391341101
0.000260987730992493
9.05762540091077e-05
0.000380681425164369
-2.34627622650925e-05
0.000266108049492606
-6.10262179088984e-05
6.1002117102741e-05
-5.52020769298524e-05
-2.94539302240778e-05
-4.69830885524308e-05
-2.42961598162683e-05
-4.17524822183219e-05
-1.52863675581047e-05
-3.78212652008075e-05
-1.16768051799038e-05
-3.46872444709794e-05
-9.4728685035614e-06
-3.24493687757044e-05
-7.00706123344263e-06
-3.15610328377993e-05
-3.20775734480242e-06
-3.21737260682868e-05
9.27447370985031e-07
-3.44437949440118e-05
5.43503942711137e-06
-3.87109563536526e-05
1.09957569039744e-05
-4.51070616773381e-05
1.69953064702822e-05
-5.34966491304555e-05
2.28391455942695e-05
-6.32359998371529e-05
2.68699059746765e-05
-7.36198437716852e-05
2.88495738550544e-05
-8.41609286910358e-05
2.94429308798818e-05
-9.43046208610204e-05
2.82776146689548e-05
-0.000103497264475572
2.51579160894672e-05
-0.000111401394691764
2.05490119428203e-05
-0.000118108306271935
1.59631430562374e-05
-0.000123973863940239
1.26487421513715e-05
-0.000128889141954602
8.69353142100707e-06
-0.000132998306354241
4.8882694935564e-06
-0.000137176519490534
3.50368399421475e-06
-0.000143387960988897
7.65354091964241e-06
-0.000155523774476674
2.21570727732188e-05
-0.000178942034150775
5.8531199241354e-05
-0.000215776921639554
0.000117769781670355
-0.000250237053349441
0.000116525791106763
-0.000277173314117676
9.58021207847779e-05
-0.000298216788315634
7.83244621600508e-05
-0.000314764934661091
6.42523229714136e-05
-0.000327873730521173
5.29943995197725e-05
-0.000338278364400869
4.39944556587133e-05
-0.000346488240914395
3.6591016505637e-05
-0.000352857437935847
3.03643832134303e-05
-0.000357634300365531
2.4952273161003e-05
-0.000360997992141379
2.01326742269031e-05
-0.000363080595171934
1.5733923314276e-05
-0.000363983530479124
1.16507546739819e-05
-0.000363787410657388
7.80721051803502e-06
-0.000362559259427663
4.15770841800668e-06
-0.000360357086417909
6.72387692774166e-07
-0.000357236451780209
-2.66105262040359e-06
-0.00035324919480883
-5.84909323757351e-06
-0.000348443214982833
-8.89824942516634e-06
-0.000342867336693583
-1.18095886721281e-05
-0.000336569433176762
-1.45777120219301e-05
-0.000329596348911895
-1.71966658512403e-05
-0.000321994991489249
-1.966146528412e-05
-0.000313812295431118
-2.19673952683533e-05
-0.000305095148022695
-2.41104687734337e-05
-0.000295890258044738
-2.60876185570729e-05
-0.000286243987620589
-2.78968328456938e-05
-0.000276202163725604
-2.95372432878081e-05
-0.00026580988259482
-3.10091421215046e-05
-0.000255111316046573
-3.23139636420721e-05
-0.000244149528069977
-3.34542229521934e-05
-0.000232966306839287
-3.44334316256998e-05
-0.000221602016199224
-3.52559948668865e-05
-0.000210095470162769
-3.59270908598659e-05
-0.000198483831019493
-3.64525488566097e-05
-0.000186802532427456
-3.6838720604099e-05
-0.000175085227334413
-3.70923542077581e-05
-0.000163363760205963
-3.72204703162033e-05
-0.000151668162380993
-3.72302463856902e-05
-0.000140026669358931
-3.71289054436459e-05
-0.000128465758097665
-3.69236191525057e-05
-0.000117010203312519
-3.66214106236254e-05
-0.000105683149691982
-3.62290828044171e-05
-9.45062015328526e-05
-3.57531292051484e-05
-8.3499525217905e-05
-3.51996834953913e-05
-7.26819655652876e-05
-3.4574443573634e-05
-6.20711752086629e-05
-3.38826385483658e-05
-5.16837552208221e-05
-3.31289441257511e-05
-4.15354124040794e-05
-3.23174841850683e-05
-3.16411243425424e-05
-3.14516884286632e-05
-2.20153312773855e-05
-3.05343918725187e-05
-1.26721281197539e-05
-2.95675021322653e-05
-3.62549163587406e-06
-2.85523720524313e-05
5.1104457287604e-06
-2.74889967010898e-05
1.35210536136649e-05
-2.63768842629266e-05
2.15910141034512e-05
-2.52135020307748e-05
2.93037664269375e-05
-2.39960553734287e-05
3.66411534421714e-05
-2.27184927063367e-05
4.35826742658557e-05
-2.13751660799542e-05
5.01050422539755e-05
-1.99538187549882e-05
5.61808542705274e-05
-1.84461032973067e-05
6.17781026559922e-05
-1.68289194964661e-05
6.68579142047562e-05
-1.50916232771112e-05
7.13739468827205e-05
-1.31905896517168e-05
7.52684417341145e-05
-1.11184724386145e-05
7.84717296111294e-05
-8.78985442710116e-06
8.08954258051395e-05
-6.22064084594374e-06
8.24319685780559e-05
-3.2382955903975e-06
8.2943968120218e-05
5.35459054409989e-08
8.22620797663694e-05
4.05653603803133e-06
8.016474434769e-05
8.44712172608582e-06
7.63808620365472e-05
1.40755175214106e-05
7.05762411617111e-05
1.98694043226348e-05
6.23648282893842e-05
2.76529291845225e-05
5.12883146954613e-05
3.46927176755279e-05
3.93076873394319e-05
4.09205498271236e-05
3.56936713962077e-05
1.09562050407385e-05
3.80623507173237e-05
-7.09770836532591e-06
4.41471602506619e-05
-2.0165243573652e-05
5.26266500893179e-05
-2.87425124361504e-05
6.29137288772146e-05
-3.53911467290371e-05
7.47477101006616e-05
-4.08820963107775e-05
8.81596308094007e-05
-4.62919277402541e-05
0.000103399669567553
-5.28970936095905e-05
0.000120073360936245
-5.765570056645e-05
0.000137698534323471
-6.03768858256649e-05
0.000155926219775494