/*--------------------------------*- C++ -*----------------------------------*\
| =========                 |                                                 |
| \\      /  F ield         | OpenFOAM: The Open Source CFD Toolbox           |
|  \\    /   O peration     | Version:  3.0.1                                 |
|   \\  /    A nd           | Web:      www.OpenFOAM.org                      |
|    \\/     M anipulation  |                                                 |
\*---------------------------------------------------------------------------*/
FoamFile
{
    version     2.0;
    format      ascii;
    class       volSymmTensorField;
    location    "30000";
    object      R;
}
// * * * * * * * * * * * * * * * * * * * * * * * * * * * * * * * * * * * * * //

dimensions      [0 2 -2 0 0 0 0];

internalField   nonuniform List<symmTensor> 
21000
(
(2.22736619407714e-05 -1.37575829095661e-07 -0 2.22750443344467e-05 -0 2.22745592402901e-05)
(2.99823247654762e-05 -2.07774741081098e-07 -9.51647145210167e-29 2.99915653753565e-05 -8.2639693737346e-31 2.99865208549999e-05)
(1.87574948438211e-05 -1.04684274597413e-07 -1.00914034806417e-29 1.8786509480656e-05 -1.21561666291588e-27 1.87721707697188e-05)
(8.05383186472566e-07 -8.98721884725239e-10 8.3119481460183e-26 8.05824910202809e-07 3.03314322322217e-25 8.05588658665745e-07)
(4.40815523123184e-06 6.60898202373882e-09 7.53165030094262e-25 4.3970301651703e-06 2.15812339076025e-24 4.40249527111447e-06)
(4.94677384778864e-06 7.06933505751705e-09 -1.22379927710197e-25 4.92745337870006e-06 -1.8999741921893e-27 4.93703950349251e-06)
(2.50617970651818e-06 1.91016438320893e-09 1.84158269169263e-24 2.49822456071687e-06 2.93797370370792e-24 2.50218244840491e-06)
(1.55273219319497e-06 6.7331657295119e-10 8.33646103663209e-26 1.54862589735715e-06 -2.3241646697902e-28 1.55067036123849e-06)
(1.15384419031668e-06 3.2821219987142e-10 6.35165803699828e-25 1.15110719349297e-06 8.61090550080354e-25 1.15246943006719e-06)
(8.3016523792624e-07 1.65149860232488e-10 1.00484100166029e-24 8.28424322202601e-07 1.27296950097875e-24 8.29291452422199e-07)
(6.14630484241878e-07 9.72375958990397e-11 -4.76907115438617e-26 6.13472315512769e-07 1.69748859235829e-27 6.14049356890647e-07)
(4.43487079797158e-07 6.35456900903329e-11 -1.81543562480592e-25 4.42740686497621e-07 -2.038487659267e-25 4.43112925719276e-07)
(3.41365399510586e-07 5.00730911252515e-11 -3.37343742560551e-25 3.40834457690204e-07 -5.11927044761424e-25 3.41099544181804e-07)
(2.91523194823085e-07 4.5363946519764e-11 6.26826893984574e-25 2.91083437508578e-07 8.04282824828006e-25 2.91303254873457e-07)
(2.78141251513554e-07 4.73011424155204e-11 9.93985238459332e-26 2.77712655071226e-07 1.66521415072999e-25 2.77927100817304e-07)
(3.02296510689569e-07 5.85339293648422e-11 5.0158738726552e-25 3.01790911119925e-07 5.89651088076505e-25 3.0204411037325e-07)
(3.72883966312356e-07 8.60625174684688e-11 -6.64924756092746e-25 3.72166808804558e-07 -7.83366031695685e-25 3.72526058638352e-07)
(5.03824909554956e-07 1.42926789615886e-10 -5.21798554318389e-25 5.02665390458278e-07 -7.76828235588796e-25 5.03246240371258e-07)
(7.08042369823934e-07 2.49507874208074e-10 1.00006667190605e-24 7.06064179523835e-07 1.14507229629283e-24 7.07054641422451e-07)
(9.65691284933034e-07 4.24108258731174e-10 -1.60007728330188e-25 9.62469283501628e-07 1.64443172066667e-26 9.64081612058119e-07)
(1.25995093458908e-06 7.02805764743034e-10 2.55838071433389e-25 1.25504573252513e-06 -1.53288684149734e-26 1.25749916408477e-06)
(1.56417904889276e-06 1.12014611801188e-09 -1.01772552258766e-24 1.55726365023105e-06 -1.4836233067266e-24 1.56072104944423e-06)
(1.8307839345534e-06 1.68057016077332e-09 -4.02026216662543e-25 1.82189476695733e-06 4.93648524886231e-26 1.82633772737017e-06)
(2.004273889615e-06 2.3276060772628e-09 -4.11550651421664e-27 1.99400795526692e-06 -4.72567154178074e-27 1.99913867954324e-06)
(2.04634576896086e-06 2.94102638737737e-09 -5.05036123185103e-24 2.03578528884552e-06 -8.05973514459391e-24 2.04106424589246e-06)
(2.00350010884281e-06 3.48232377064539e-09 -4.23971644210543e-24 1.99350095024453e-06 -7.43085644894802e-24 1.99850249482616e-06)
(1.9064917090158e-06 3.86949451520459e-09 -1.17136245435969e-24 1.89766567163554e-06 -3.28199140563997e-24 1.90208300102136e-06)
(1.73742888761856e-06 3.94325469945306e-09 -1.99931277111406e-22 1.73037939813338e-06 -5.21597171414361e-22 1.73391073805018e-06)
(1.52557527143806e-06 3.71879575723134e-09 2.51039444862278e-24 1.52050225574393e-06 8.06787199792826e-24 1.52304641643463e-06)
(1.31836136020799e-06 3.3501162802502e-09 1.188847657258e-22 1.31503850021164e-06 5.0247943389112e-22 1.31670718764945e-06)
(1.19728247790985e-06 3.16925299700497e-09 6.46376824230182e-26 1.19522444623157e-06 -1.00291906607746e-26 1.19626307478859e-06)
(1.04652866637367e-06 2.84309939844639e-09 -3.34692780598047e-23 1.04551660945161e-06 3.35006177644183e-24 1.04602062447136e-06)
(1.90218465281508e-06 7.05233528374342e-09 -6.2629929119572e-23 1.90127877199215e-06 2.60506663965249e-22 1.90175701959647e-06)
(4.41254677624378e-06 2.38194114128509e-08 1.27213696101552e-22 4.41105095628396e-06 4.86994829813965e-22 4.41181796299816e-06)
(7.16681145927623e-06 4.82675821694189e-08 2.31245921647072e-22 7.16468391028204e-06 -1.80790516496837e-23 7.16580847426173e-06)
(1.03278159035189e-05 8.20660527349362e-08 -3.16457724780027e-28 1.03251076974816e-05 -4.50164525124977e-26 1.03265339668341e-05)
(1.3443466219776e-05 1.20377258004411e-07 6.2141557109953e-27 1.34403928154759e-05 5.80952476927201e-26 1.34420370329545e-05)
(1.65237960704849e-05 1.62382492350462e-07 -6.92875684663719e-27 1.65204899395449e-05 6.1815788711174e-28 1.65222714886138e-05)
(1.94321533863643e-05 2.05396501509383e-07 -1.63623686732871e-26 1.94287307335057e-05 1.27313293590576e-27 1.94306009154444e-05)
(2.21864681249522e-05 2.48806623221219e-07 -2.0485200746228e-27 2.21830014208746e-05 -6.79734256192048e-26 2.21849176698097e-05)
(2.47559775248529e-05 2.91429470510688e-07 3.12966346702573e-26 2.47525255664503e-05 -1.40233903033315e-25 2.47544608093098e-05)
(2.71504945351207e-05 3.32808681291629e-07 1.35879576237309e-27 2.71471046680545e-05 2.68904883670799e-25 2.71490316232334e-05)
(2.93607822670282e-05 3.72272754159309e-07 -2.4864978577439e-26 2.9357499010937e-05 -1.61134213924646e-25 2.93593945146788e-05)
(3.1386412181743e-05 4.09367588155307e-07 -1.75800798775824e-27 3.13832786955026e-05 -1.36941834670168e-25 3.13851179800782e-05)
(3.32194721050896e-05 4.4356402410332e-07 4.2371559859135e-26 3.32165310479056e-05 -2.84742264660665e-27 3.32182902701408e-05)
(3.48539529333748e-05 4.74414680063393e-07 1.10798109625701e-21 3.48512458701499e-05 -5.75437196779641e-23 3.48529007861497e-05)
(3.62817658609789e-05 5.01477987957049e-07 1.45715070897612e-21 3.62793319385416e-05 -3.33262951025895e-21 3.62808596100183e-05)
(3.74963295953958e-05 5.24385055977273e-07 -8.88754734286467e-22 3.74942041276061e-05 -3.03329216358212e-21 3.74955831650739e-05)
(3.84919258214192e-05 5.42829257810272e-07 -1.23996034263577e-21 3.84901387892762e-05 5.91749087342258e-23 3.84913505296535e-05)
(3.92650403211061e-05 5.56595020583301e-07 3.15059060903305e-26 3.92636153651289e-05 -1.76121990067934e-25 3.92646442748332e-05)
(3.98139491380176e-05 5.65552695753012e-07 1.09234900840957e-26 3.98129027429276e-05 1.43894104012998e-20 3.98137370648655e-05)
(4.01379415483225e-05 5.69647964206985e-07 -1.30877046643691e-21 4.01372832174301e-05 1.47413645320318e-20 4.01379147609418e-05)
(4.02358022505403e-05 5.6887442391367e-07 -1.6553175899893e-21 4.02355333264677e-05 3.67612382413294e-21 4.023595812228e-05)
(4.01156948767234e-05 5.63429170913024e-07 9.82435392438546e-22 4.01158073189588e-05 3.36250640471284e-21 4.0116026612755e-05)
(3.97868300699644e-05 5.53579668818563e-07 1.31309808613107e-21 3.97873077882246e-05 -4.5682138117308e-23 3.97873273178286e-05)
(3.92606431130115e-05 5.39672600660727e-07 8.65652347856933e-27 3.92614628435631e-05 -2.82479674716402e-28 3.92612923949063e-05)
(3.85508738902072e-05 5.22124799350515e-07 1.25982870665586e-37 3.85520062799002e-05 -3.56292997119965e-39 3.85516591711058e-05)
(3.76732097319448e-05 5.01407117236846e-07 -9.56655702695035e-38 3.76746205641226e-05 -3.33545403608713e-37 3.76741130316894e-05)
(3.66448872248081e-05 4.7802723641473e-07 -1.46583576421156e-37 3.66465387435244e-05 3.35803727060967e-37 3.66458892646037e-05)
(3.54842729022441e-05 4.52512391857067e-07 1.16613588881157e-37 3.54861251681006e-05 -2.79057873602642e-39 3.54853537507483e-05)
(3.42104351376688e-05 4.25392727810291e-07 3.9395308661036e-27 3.42124473452587e-05 -1.0270898140745e-25 3.42115748267239e-05)
(3.28427280005686e-05 3.97186082042344e-07 -3.36166283097531e-27 3.28448597015584e-05 1.87547325339006e-25 3.28439070842959e-05)
(3.14003983435722e-05 3.68384696994309e-07 -3.6380325888099e-28 3.14026105285574e-05 -8.49098732748634e-26 3.14015983814974e-05)
(2.99022297474018e-05 3.39444276181547e-07 3.22974121347887e-28 2.99044857552875e-05 3.57824462337344e-26 2.9903433698691e-05)
(2.83662298004977e-05 3.10775554173163e-07 9.96968311731219e-22 2.83684960375074e-05 -1.08783507209915e-23 2.83674223232101e-05)
(2.6809367388719e-05 2.82738442738931e-07 2.10738864598832e-22 2.68116138505701e-05 -2.90176815774779e-21 2.68105350434371e-05)
(2.52473623010634e-05 2.55638647162291e-07 -1.73519198612103e-21 2.52495629048908e-05 -9.08145167049003e-23 2.52484936638458e-05)
(2.36945269815073e-05 2.29726538606085e-07 -1.6826589559661e-22 2.36966597213101e-05 2.52788814121313e-21 2.36956126746564e-05)
(2.21636590385092e-05 2.05198002114022e-07 7.50715776469383e-22 2.21657059850417e-05 -3.25951561157305e-24 2.21646916903288e-05)
(2.06659808446744e-05 1.82196920918447e-07 -6.17073306575158e-28 2.06679280143969e-05 1.34242241259925e-30 2.06669549910965e-05)
(1.92111215544963e-05 1.60818940471139e-07 5.85659457131661e-28 1.92129586744494e-05 1.27408263009752e-30 1.92120334958333e-05)
(1.78071363496108e-05 1.4111616168965e-07 -5.054020898198e-28 1.78088565446194e-05 5.57433248949925e-27 1.78079839755943e-05)
(1.64605565505216e-05 1.23102424480201e-07 -5.37257782192847e-28 1.64621559785229e-05 -5.16564643461062e-27 1.64613391455535e-05)
(1.51764655594032e-05 1.06758895495187e-07 4.63423138792007e-28 1.51779430168281e-05 3.02448477907215e-30 1.51771835988651e-05)
(1.39585937159843e-05 9.20396908917845e-08 -0 1.39599502343327e-05 -0 1.39592486625122e-05)
(1.28094278662952e-05 7.88773424959578e-08 -0 1.28106663138972e-05 -2.22581870365383e-26 1.28100219732142e-05)
(1.17303302181939e-05 6.71879376187387e-08 -0 1.17314549221108e-05 2.05168589946336e-26 1.17308663454759e-05)
(1.07216630589965e-05 5.68758276833136e-08 -0 1.07226794543236e-05 -0 1.07221445061405e-05)
(9.78291323096043e-06 4.78378053226378e-08 -0 9.78382754571341e-06 3.50042060866216e-26 9.78334358802176e-06)
(8.91281928932105e-06 3.99667664132677e-08 -0 8.913638266014e-06 -3.20959535598346e-26 8.91320230920795e-06)
(8.10948746230679e-06 3.31547417031534e-08 -0 8.11021812092067e-06 -2.95637682226414e-26 8.10982695116653e-06)
(7.37051526087585e-06 2.72954895121231e-08 -0 7.37116469758236e-06 2.70378297797701e-26 7.37081499120119e-06)
(6.69308630617845e-06 2.22863862136274e-08 -0 6.69366153466227e-06 2.48421806024599e-26 6.69334994340949e-06)
(6.07409121148676e-06 1.80301067322198e-08 -0 6.07459902955236e-06 -2.26803733674184e-26 6.07432226385048e-06)
(5.51018910640806e-06 1.44354831526437e-08 2.14807218410438e-22 5.51063600747356e-06 7.00958916515792e-24 5.51039088033562e-06)
(4.99793399601885e-06 1.14185303887922e-08 3.9643311826782e-22 4.99832608581608e-06 -8.16349268979967e-22 4.99810957787659e-06)
(4.53378044460115e-06 8.90237725720332e-09 1.03132563602909e-23 4.53412340883017e-06 -1.56314404576094e-21 4.53393267184292e-06)
(4.11425415244767e-06 6.8180583962151e-09 -3.16983052299198e-22 4.11455322029535e-06 -7.4919630628362e-22 4.11438562625308e-06)
(3.73583808258835e-06 5.10342955769411e-09 -1.45673181334235e-22 3.7360980336922e-06 -5.70426550389332e-24 3.73595113925977e-06)
(3.39528090747126e-06 3.70432788578594e-09 1.77189822930858e-27 3.39550604541645e-06 -4.49165164612669e-26 3.39537766336819e-06)
(3.08924127830475e-06 2.57219184702157e-09 3.2898053097668e-27 3.08943550439835e-06 -7.5105116997779e-27 3.08932358249194e-06)
(2.81489446377146e-06 1.66633823435382e-09 -2.97063673044082e-27 2.81506120472924e-06 3.75654806986011e-26 2.81496399060602e-06)
(2.56911384378551e-06 9.4968071036557e-10 -1.37520446853736e-27 2.56925610936838e-06 -1.40916026419956e-26 2.56917198740847e-06)
(2.34973904044903e-06 3.93377760040676e-10 1.24877772476935e-27 2.34985940784118e-06 6.24835093525626e-29 2.34978709731833e-06)
(2.15373529911207e-06 -3.08258624041798e-11 -1.15658435022413e-27 2.15383604056251e-06 -6.29027676524983e-29 2.15377423827319e-06)
(1.9799635328792e-06 -3.41334961989791e-10 2.12723882274582e-27 1.98004647966067e-06 -1.08023633798114e-26 1.97999435254234e-06)
(1.82514899412647e-06 -5.60565688680077e-10 9.12106909472765e-31 1.82521579296005e-06 2.01663777514511e-26 1.82517223521392e-06)
(1.68995621744008e-06 -6.96959378783376e-10 -9.05111896158507e-28 1.69000798696372e-06 -9.40201147834468e-27 1.68997268865422e-06)
(1.57034144181866e-06 -7.71073727517082e-10 -3.5017682815651e-30 1.57037934050289e-06 8.72380958176766e-27 1.57035118808427e-06)
(1.47072263525387e-06 -7.7974673049886e-10 3.0091220949826e-30 1.47074698090901e-06 -8.1723476818729e-27 1.47072642560406e-06)
(1.38179993311691e-06 -7.46253416212849e-10 -7.54251695403593e-28 1.38181147853264e-06 7.65733950406245e-27 1.38179705966873e-06)
(1.31087586383714e-06 -6.45513848576311e-10 7.14411294184396e-28 1.31087366693569e-06 -1.45873419235542e-26 1.31086733913016e-06)
(1.24915237612473e-06 -5.21305531467134e-10 6.79394606763118e-28 1.24913730684261e-06 1.40163825395729e-26 1.24913622264353e-06)
(1.22361976545464e-06 -3.04749440149376e-10 -1.33327708396106e-27 1.22358855686588e-06 -6.93999046614594e-27 1.22359774838465e-06)
(1.19159128262876e-06 -8.66512668115092e-11 1.30012746914323e-27 1.19154654408896e-06 9.75819796519946e-29 1.19155923392211e-06)
(1.23367505390562e-06 3.26516936088471e-10 6.12535998994307e-30 1.23360851236375e-06 6.92733632761279e-27 1.23363706667704e-06)
(1.22177439478897e-06 6.50739596141069e-10 -1.33289517343436e-27 1.22169620106476e-06 -2.02648049138215e-26 1.22172227350771e-06)
(1.40391196170447e-06 1.5564175876492e-09 -9.33260954894031e-28 1.40384082430929e-06 1.99459853139581e-25 1.40387492621296e-06)
(1.77821173181881e-06 2.63691403699694e-09 2.46214576616372e-25 1.77902587825023e-06 4.10925398424716e-26 1.77860913309858e-06)
(1.92070217905415e-06 2.67894515316743e-09 -4.35816077350109e-25 1.92245643575381e-06 2.6893978493929e-24 1.92159010871465e-06)
(2.07319807731224e-06 2.51464057325795e-09 -1.67077222056364e-24 2.07576940043583e-06 8.22286356995259e-24 2.07450039643983e-06)
(2.02722627968071e-06 1.71318692356013e-09 7.38764862347377e-25 2.0296871869482e-06 -2.3925092533901e-24 2.02848611336021e-06)
(1.91651873859689e-06 8.81868549681929e-10 2.54537578797557e-24 1.91824477187011e-06 -6.67961735645455e-24 1.91741559093479e-06)
(1.71228951214422e-06 1.07534829130113e-10 -3.82876943538235e-24 1.71270623632796e-06 9.24030291463192e-24 1.71253220092762e-06)
(1.49715556695521e-06 -4.19317964452875e-10 -1.28103650119207e-24 1.4961555043992e-06 2.97715829303086e-24 1.49668676404704e-06)
(2.01876611565818e-06 -1.16576168124124e-09 -2.78243021677679e-27 2.01499688386961e-06 -3.36612064103756e-24 2.01691953249516e-06)
(3.00395752675795e-06 -2.46862732376442e-09 1.14012839663298e-23 2.99399798601666e-06 -1.92274143632872e-23 2.99902173714711e-06)
(4.44637060444293e-06 -4.4891630771279e-09 1.4856047155734e-24 4.42463863221407e-06 1.54355414859425e-25 4.43554404654278e-06)
(6.4717530894051e-06 -7.5085131411965e-09 1.23741957625703e-23 6.42955990072004e-06 -1.70506671194696e-23 6.45066717539497e-06)
(9.16507515473465e-06 -1.18394823137639e-08 2.31738915198211e-24 9.09037424324977e-06 2.58251064820872e-25 9.12767186157577e-06)
(1.25972550818093e-05 -1.79724742502142e-08 2.75295696492518e-24 1.24744310877256e-05 1.68406815861107e-25 1.25356695705123e-05)
(1.65118328105857e-05 -2.59108420132188e-08 1.05263841845427e-23 1.63268380450279e-05 -1.38955512314957e-23 1.64190082284996e-05)
(2.04057707812558e-05 -3.43450519456334e-08 -4.69689163925421e-23 2.01532183643451e-05 5.53897760742083e-23 2.02790121203343e-05)
(2.43330016111815e-05 -4.24294166806899e-08 -2.76111622434071e-26 2.40087266743671e-05 2.97448741024679e-26 2.41702089545087e-05)
(2.87634125114032e-05 -5.07601048992894e-08 2.58894752469177e-26 2.83550637002582e-05 -3.28345124868746e-26 2.85583511070288e-05)
(3.3820622726793e-05 -5.90319809671711e-08 -5.7871439772928e-23 3.33130878753293e-05 7.22645905053932e-23 3.35656963893401e-05)
(4.03621289344309e-05 -6.87166690317387e-08 -6.38377376405843e-23 3.97207809095955e-05 7.82460410328109e-23 4.00398137996706e-05)
(4.90710373390305e-05 -8.034418779208e-08 7.35228041316546e-23 4.82424732504367e-05 -8.73626108134438e-23 4.86544493560246e-05)
(6.38645357415949e-05 -1.03103173425516e-07 -6.61687246813638e-23 6.26889136039759e-05 7.06632395960093e-23 6.32726751178216e-05)
(8.89481616756833e-05 -1.60324660581489e-07 6.85299030172652e-23 8.7106325260083e-05 -8.90223391448097e-23 8.80197549531097e-05)
(0.000127045566772402 -2.96124708454931e-07 9.69188996577484e-24 0.000124040021592848 1.96460865347445e-25 0.000125528987406942)
(0.000184826829189094 -6.26166075774772e-07 -1.54757574815481e-22 0.000179779281270506 2.27450470229464e-22 0.000182277629154876)
(0.000276313467238211 -1.47685908666767e-06 -1.39087312103366e-23 0.000267517122897064 7.71095613499679e-26 0.000271866922239607)
(0.000417104057007648 -3.69538229689484e-06 2.31231204818758e-22 0.000401757304936277 -3.31880279238642e-22 0.000409340688833347)
(0.000592234236880332 -8.66088001537929e-06 -1.07312983864002e-22 0.000568702893817077 1.42110855693632e-22 0.000580326607889533)
(0.000617259900014345 -1.28892505649039e-05 -3.60757254426259e-23 0.000596673117816846 5.88084754609848e-25 0.00060686226701938)
(0.000372147737757841 -7.82897656658586e-06 1.44207673870554e-23 0.000365473374900612 2.39271435691886e-23 0.000368789193281)
(0.000153847792777599 -2.43569644762902e-06 2.06518118235128e-25 0.000152909313039414 1.72798022159341e-23 0.000153374763875316)
(4.29936470678974e-05 -4.01547576786725e-07 -2.37771328610236e-25 4.29527059987664e-05 2.49126069012447e-27 4.29738064648139e-05)
(1.87787279341132e-05 -1.15899555783009e-07 2.60354928890073e-29 1.87769579775799e-05 -1.13278694135102e-31 1.87775839833079e-05)
(8.03696038125007e-05 -3.57164054144604e-06 -0 8.03882941125972e-05 -0 8.03857799714641e-05)
(8.0756530240189e-05 -3.63828751389141e-06 -2.0960484690378e-28 8.08825729127393e-05 -1.97379046628128e-26 8.08122702893597e-05)
(5.19772855241892e-05 -1.96036024770164e-06 5.86419545903292e-24 5.23721724477556e-05 8.05296814374485e-26 5.21794765558506e-05)
(2.00367311980914e-05 -3.2807145322157e-07 -5.24635155754844e-26 2.01633073305943e-05 1.34417845790525e-24 2.01012195281519e-05)
(4.95502480587239e-06 1.24547298832954e-08 -5.28002915146912e-24 4.91379834318277e-06 -1.3551960036944e-23 4.93499392896609e-06)
(1.19060007230796e-06 7.65942512269197e-09 -1.69741992582517e-24 1.16885679495094e-06 -4.36032029917742e-24 1.17983059406996e-06)
(5.61175290371712e-07 2.28381581729486e-09 -2.28322171566486e-24 5.52100600269109e-07 -3.64369140692283e-24 5.56665221574735e-07)
(4.19159731930358e-07 9.9310498990205e-10 -1.83803154820969e-25 4.13379677608075e-07 -1.06904293374333e-27 4.16285489001587e-07)
(2.84826144666344e-07 4.45700698175014e-10 -6.54357669173311e-25 2.81268849321935e-07 -1.21270906405069e-24 2.83055673152113e-07)
(2.09443348675863e-07 2.36278312468232e-10 -2.98745041972061e-25 2.07097418531805e-07 -4.0921119222605e-25 2.08275561156926e-07)
(1.70344369698795e-07 1.56724290928325e-10 -8.48321417430746e-26 1.68609558557807e-07 6.84525768755077e-28 1.69480099132368e-07)
(1.43863180505701e-07 1.2281693028173e-10 2.31236672582879e-25 1.42530464210803e-07 3.79286522201334e-25 1.43198579675906e-07)
(1.32593761045923e-07 1.16233299969817e-10 -2.75983960656934e-26 1.31436072447274e-07 -2.98543807034359e-26 1.3201572835524e-07)
(1.3527831888944e-07 1.25348857017937e-10 -4.1132634199097e-25 1.34110912090965e-07 -8.17846983777203e-25 1.34694788203093e-07)
(1.50999008400672e-07 1.51886551164923e-10 2.12997549652209e-24 1.4964430713376e-07 2.63642850228744e-24 1.50321061660342e-07)
(1.83260576411143e-07 2.06842396005038e-10 -1.94369190357789e-24 1.81453796777842e-07 -1.97981634928588e-24 1.82355802640939e-07)
(2.39617667905961e-07 3.15876131916141e-10 1.87962743334417e-24 2.36889952594584e-07 2.83087879271801e-24 2.38251097250164e-07)
(3.30103158618088e-07 5.23078096381147e-10 -6.71446710018372e-25 3.25629013910731e-07 -1.44646315475221e-24 3.27862118979937e-07)
(4.66382436555488e-07 9.01407546718979e-10 -3.26080188558657e-24 4.58804802651269e-07 -4.24825110387496e-24 4.62588775301437e-07)
(6.53669985603985e-07 1.56133846036154e-09 3.54645950578338e-27 6.41151818890349e-07 3.16137731018081e-27 6.47406359440465e-07)
(8.97557269167247e-07 2.71517343249951e-09 8.68616915636513e-24 8.77744962352587e-07 1.39189296069263e-23 8.87649531601867e-07)
(1.20249617279458e-06 4.67643947233992e-09 -1.04000698446371e-23 1.1726779956889e-06 -1.41571758277589e-23 1.1875918574911e-06)
(1.56265378236399e-06 7.83485762625949e-09 2.22711166665335e-23 1.52043166172856e-06 2.78855583247595e-23 1.54155725999573e-06)
(1.96044124856155e-06 1.25677208831673e-08 -4.42900541798174e-24 1.90470582417887e-06 4.69874596419898e-25 1.93259675844916e-06)
(2.37098621183544e-06 1.91177265234392e-08 2.5539834062495e-23 2.30265466385885e-06 5.05340087133862e-23 2.33683729721332e-06)
(2.78242335967158e-06 2.76250621101469e-08 3.60505732273454e-23 2.70393547355194e-06 5.57207237378029e-23 2.74318819505518e-06)
(3.18397970214657e-06 3.77075063074341e-08 -3.87569934677903e-21 3.09932617591162e-06 -7.32626485677993e-21 3.14163876653663e-06)
(3.52114742639751e-06 4.80009906631295e-08 -1.42989800557376e-21 3.43714325154698e-06 -3.57451581741229e-21 3.47910646695425e-06)
(3.74927839687738e-06 5.69858975598622e-08 1.39809907221632e-21 3.6734246650515e-06 -5.1045782591789e-22 3.71128583050612e-06)
(3.8726643090559e-06 6.42251756112795e-08 -1.75067555063529e-21 3.81032384118349e-06 -7.70177712053098e-21 3.84140333565145e-06)
(3.97925577313389e-06 7.18398572355235e-08 -9.07085429796135e-22 3.93252521211294e-06 1.13750100854533e-22 3.95591004307227e-06)
(4.2329551353247e-06 8.58793212495607e-08 1.1318361700811e-21 4.19790608013645e-06 -1.07030148527161e-22 4.21512147791591e-06)
(5.24525596094837e-06 1.34817581527236e-07 1.50932722080918e-21 5.2152846638058e-06 9.82141208595473e-21 5.23047263115684e-06)
(7.87676720774505e-06 2.61622449191719e-07 -1.95023571653386e-21 7.83818200532498e-06 1.51902848416794e-20 7.85709183832057e-06)
(1.09829975118112e-05 4.31612359494717e-07 -2.79709721246305e-21 1.0937421701396e-05 -3.16578862172132e-20 1.09599866330876e-05)
(1.42444018364419e-05 6.33227357030417e-07 -1.19792946652346e-34 1.41938543667596e-05 -4.11970197517408e-20 1.42185663522026e-05)
(1.75735186717365e-05 8.54926775797967e-07 -7.44762453178935e-40 1.75209590807664e-05 -9.32073321625133e-25 1.75465880992404e-05)
(2.09376148358669e-05 1.09194649447568e-06 -4.9408208659688e-37 2.08844934288442e-05 1.19258557769257e-24 2.09101442475971e-05)
(2.43057759277757e-05 1.33830354206205e-06 7.85301245624573e-26 2.42533087996119e-05 -5.10022382489062e-27 2.42784673365875e-05)
(2.76843950240647e-05 1.59203683918268e-06 -6.85480043267072e-26 2.76332460982307e-05 -1.77257627672466e-25 2.76575234709656e-05)
(3.10706400726762e-05 1.8504453767781e-06 -2.36105051810503e-26 3.10214321195235e-05 -3.03037135807107e-26 3.10445539336285e-05)
(3.44699811603777e-05 2.11202449435479e-06 2.80556479729604e-26 3.44232544867425e-05 1.48222984199432e-25 3.44449375696755e-05)
(3.78802799206403e-05 2.37469406153862e-06 -1.51870232997411e-25 3.78366371850346e-05 -1.06761361871414e-24 3.78566014080337e-05)
(4.1299297539051e-05 2.6365516604007e-06 1.32103135137155e-25 4.12593829773638e-05 2.12014328922062e-24 4.12773129417735e-05)
(4.47200917687791e-05 2.89531770048416e-06 -0 4.46846128516962e-05 3.82603501638567e-27 4.47001756518235e-05)
(4.81344793406488e-05 3.14867842378794e-06 -1.15978003423793e-20 4.81041819485744e-05 6.0318454934198e-22 4.811702297116e-05)
(5.15323433858916e-05 3.39418104377501e-06 -1.46324498655964e-20 5.15079962094132e-05 -9.70866298856735e-20 5.15177565169907e-05)
(5.49039145473841e-05 3.62945691557457e-06 1.07884673942407e-20 5.48862808676407e-05 -1.06118743277162e-19 5.48926054030058e-05)
(5.82404804163744e-05 3.85228127450487e-06 1.39418936445263e-20 5.82302943793232e-05 -6.67410039817625e-22 5.82328465726244e-05)
(6.15346554580005e-05 4.06065421545581e-06 1.2886077715408e-20 6.15326013452407e-05 -5.57466290908625e-22 6.15310706924186e-05)
(6.47753992655994e-05 4.2524724861067e-06 1.84170807657486e-20 6.47821093945687e-05 -1.10872973074994e-19 6.47762104118468e-05)
(6.7929145916061e-05 4.42378131208403e-06 7.42316104265964e-21 6.79451953895229e-05 -1.14827488944166e-19 6.79346736144561e-05)
(7.09603950124359e-05 4.57125257244182e-06 5.65001788736045e-21 7.09862326074862e-05 1.38381287545475e-19 7.09709013698379e-05)
(7.38545789361984e-05 4.69373341213545e-06 -1.4895115735764e-20 7.3890497396277e-05 1.46495057323628e-19 7.38702453506166e-05)
(7.65962281200307e-05 4.7899536299906e-06 -1.88681105284549e-20 7.66423781856956e-05 6.57763471050788e-22 7.66171634504376e-05)
(7.91711887835364e-05 4.85898443367073e-06 -1.31415462169653e-25 7.92275740610189e-05 4.28834936999709e-27 7.91974261886907e-05)
(8.15671884885704e-05 4.90033708293582e-06 -2.01612636623519e-36 8.16336660926208e-05 5.70182042836193e-38 8.15986851223888e-05)
(8.37739016092301e-05 4.91395499098826e-06 1.7362861251935e-36 8.38501868347687e-05 -1.17441993771575e-24 8.38105403752212e-05)
(8.57830630509068e-05 4.9002003925885e-06 2.47162037975713e-36 8.5868737977445e-05 1.20524665641191e-24 8.58246564671082e-05)
(8.75885168148455e-05 4.85982908793045e-06 -1.52997002880679e-25 8.76830423581043e-05 3.32839880517148e-27 8.76348127077902e-05)
(8.91862101031485e-05 4.79395538022027e-06 2.00676504239947e-25 8.92889408110381e-05 1.22723555714018e-24 8.92368988174874e-05)
(9.05741407776015e-05 4.70400956601903e-06 1.30087211789196e-25 9.06843416469623e-05 -1.18076039418046e-24 9.06288635149102e-05)
(9.17522607495804e-05 4.59168990471884e-06 -2.59288556102527e-25 9.18691252842054e-05 -7.6336199243255e-26 9.18106186535622e-05)
(9.27223447381897e-05 4.45891146183539e-06 8.21991268488502e-26 9.28450135201163e-05 -6.25852155862528e-25 9.27839083428499e-05)
(9.34878300145198e-05 4.30775377226109e-06 -2.55984167852903e-20 9.36154091195445e-05 2.78376379905392e-22 9.35521487065557e-05)
(9.40536346196125e-05 4.14040924596342e-06 -4.45765682481205e-21 9.41852132603478e-05 -1.99095966485515e-19 9.41202457921437e-05)
(9.44259626332652e-05 3.95913397785009e-06 5.07939553484842e-20 9.45606295701277e-05 -1.05009661294507e-20 9.44944002776151e-05)
(9.46121010128057e-05 3.76620215331518e-06 4.07269946124129e-21 9.47489593430723e-05 1.93179170482243e-19 9.4681903539504e-05)
(9.46202155180286e-05 3.56386511998381e-06 -2.5132151204323e-20 9.47583955838156e-05 1.09092388199051e-22 9.46909326557878e-05)
(9.44591502108581e-05 3.35431574624132e-06 2.59557971289826e-36 9.45978204682515e-05 9.29105769471422e-26 9.45303488926103e-05)
(9.41382355545779e-05 3.13965846645097e-06 2.66783916153316e-36 9.42766113519877e-05 9.4137892393081e-26 9.42095047455084e-05)
(9.36671077122179e-05 2.92188508373485e-06 2.35460634920397e-37 9.38044579975456e-05 -2.59985276717564e-25 9.37380621861805e-05)
(9.30555430289567e-05 2.7028562508807e-06 -2.63815369554281e-36 9.31911950972792e-05 1.6469978864622e-25 9.31258261269061e-05)
(9.23133067609883e-05 2.48428826521144e-06 -0 9.24466491615501e-05 -3.83814901621879e-25 9.23825922053275e-05)
(9.14500211961595e-05 2.26774483020105e-06 -9.29419156331792e-26 9.15805050412396e-05 1.15344704938744e-24 9.15180140471769e-05)
(9.04750446660044e-05 2.05463308813249e-06 8.42431750574827e-26 9.0602183445462e-05 -2.41876903071053e-26 9.05414815117436e-05)
(8.93973753369703e-05 1.84620368028852e-06 9.90938205350351e-26 8.95207435639904e-05 3.16138740441355e-26 8.94620238242373e-05)
(8.82255617796174e-05 1.64355385218802e-06 9.440351387823e-26 8.83447925887155e-05 -7.69363383723218e-25 8.82882196228552e-05)
(8.69676372044181e-05 1.44763331778024e-06 -1.70723305574243e-25 8.70824191857331e-05 5.18835251752206e-26 8.70281307023587e-05)
(8.56310524153727e-05 1.25925220167655e-06 -3.74195635557093e-25 8.57411257774669e-05 -6.24524946262027e-26 8.56892347122303e-05)
(8.42226415414307e-05 1.07909041880874e-06 3.48225597836417e-25 8.43277938854951e-05 1.4909748305534e-24 8.42783904555602e-05)
(8.2748555573011e-05 9.0770870949612e-07 3.65953571416885e-25 8.28486172443519e-05 6.73588568388002e-26 8.28017715344871e-05)
(8.12142817265884e-05 7.45559268646853e-07 -3.44021765237574e-25 8.130912120448e-05 -1.47395804701089e-24 8.12648851144956e-05)
(7.96245161403621e-05 5.92999190099783e-07 -1.80394223865006e-25 7.97140348446617e-05 -5.78714686860206e-26 7.96724452782182e-05)
(7.7983300623041e-05 4.50299388004684e-07 -2.58420017991392e-20 7.80674283349821e-05 -8.43276574906801e-22 7.80285086277148e-05)
(7.62937367174313e-05 3.17662442670356e-07 -5.17090385953823e-20 7.6372426641985e-05 -1.81914362617662e-19 7.63361902106836e-05)
(7.45583279700748e-05 1.9522365411458e-07 -1.53175152240283e-21 7.4631552322484e-05 -3.52423393221923e-19 7.45980025365632e-05)
(7.27783718481221e-05 8.30822868783942e-08 4.83825014643904e-20 7.2846123595277e-05 -1.7020601991679e-19 7.28152529912929e-05)
(7.09547340294406e-05 -1.87215967257703e-08 2.40530391675089e-20 7.10170161182614e-05 9.39007584885246e-22 7.0988809362344e-05)