/*--------------------------------*- C++ -*----------------------------------*\
| =========                 |                                                 |
| \\      /  F ield         | OpenFOAM: The Open Source CFD Toolbox           |
|  \\    /   O peration     | Version:  4.1                                   |
|   \\  /    A nd           | Web:      www.OpenFOAM.org                      |
|    \\/     M anipulation  |                                                 |
\*---------------------------------------------------------------------------*/
FoamFile
{
    version     2.0;
    format      ascii;
    class       volVectorField;
    location    "30000";
    object      U;
}
// * * * * * * * * * * * * * * * * * * * * * * * * * * * * * * * * * * * * * //

dimensions      [0 1 -1 0 0 0 0];

internalField   nonuniform List<vector> 
21000
(
(0.0305610810803846 -3.19217297444608e-05 0)
(0.0365678915454178 -0.000487483689315049 0)
(0.0287477929457743 -0.00237063451581716 1.43797136530659e-21)
(0.00136700712695182 -0.000657870255370616 -1.89058742438002e-21)
(-0.0141032322295824 0.00436932276568434 -1.1875519672657e-17)
(-0.0144618387209974 0.00702078064796338 0)
(-0.00973992439369912 0.00602562147391301 -1.9851007344756e-21)
(-0.00733308477172893 0.00521896042329549 6.94102292132991e-22)
(-0.00614279481055816 0.00474882698712939 -2.31215727843755e-17)
(-0.00510574041004392 0.00415900016192472 2.37430959467904e-17)
(-0.00434684092834421 0.0036285279782418 -3.01219047405078e-21)
(-0.00368162938529281 0.00308439520809975 5.14841753979019e-17)
(-0.00323965323481055 0.00268066280062301 6.59502799121767e-21)
(-0.003001306921512 0.00245247423587175 -2.83076444347357e-17)
(-0.00293574568389716 0.00237408955444478 2.95307162544019e-17)
(-0.00306429777561139 0.00245598267687185 0)
(-0.00341071081564446 0.00270829431883923 0)
(-0.00397616010447193 0.00312827421296707 3.28597342309319e-17)
(-0.00472955791091223 0.00368598120691952 -3.38583641030418e-17)
(-0.00554835092589744 0.00426550937130014 -3.41625069250291e-20)
(-0.00638801634414696 0.00479090398945554 -3.53405269881613e-20)
(-0.00719873595427831 0.00520169414738581 -3.74055442261993e-17)
(-0.00790103599457363 0.00542424583640234 -7.59961221940816e-20)
(-0.00840845830150251 0.00539394604463332 3.95034066251751e-20)
(-0.00865654863953796 0.00508249712707354 0)
(-0.00873406715295263 0.00457925967744459 2.19412836119065e-17)
(-0.00867025665528118 0.00396938078964837 2.285809032131e-17)
(-0.00838851404846176 0.00326375627593537 -9.18705608623777e-20)
(-0.00792720365830122 0.00251952494385634 0)
(-0.00739280365356056 0.0018039996006096 0)
(-0.00706209276656922 0.00117331547854256 -9.80386983090342e-20)
(-0.0064996622009062 0.000547449146336071 -6.26403014200552e-18)
(-0.00918424541763108 0.000171536015438444 3.63037747485313e-15)
(-0.0144525841303608 6.88258618018853e-05 3.66562283156857e-15)
(-0.0185681814335796 8.09019596427333e-05 -4.84220360193869e-20)
(-0.0224019559279062 8.56360504374155e-05 4.82154543084458e-20)
(-0.0256186223575399 9.19671146696112e-05 -4.81377279471621e-20)
(-0.0284404636025338 9.52989599739874e-05 -7.79779041659791e-23)
(-0.030859303803838 9.88032578840843e-05 -9.42544545427424e-23)
(-0.0329782618355918 0.000101233438815754 9.59289176157205e-20)
(-0.0348285711113838 0.000103397197342251 1.23115912772477e-22)
(-0.0364581126481213 0.000104889198167992 -4.79524070299924e-20)
(-0.0378889463794965 0.00010590059956552 0)
(-0.0391426939983417 0.000106289010578105 4.8249278801736e-20)
(-0.0402309665405172 0.000106097306316259 1.6968163899847e-22)
(-0.0411633512944303 0.000105278456296944 -9.67990033867132e-20)
(-0.041945520972951 0.000103849189536048 -3.61106699280227e-15)
(-0.0425820334323476 0.000101806166011104 -3.65917281348553e-15)
(-0.0430761594348206 9.9171854845026e-05 4.87745667496961e-20)
(-0.0434309009530954 9.59639458704741e-05 4.91749658249102e-20)
(-0.0436490338051583 9.22194170178766e-05 -4.91652338614876e-20)
(-0.0437334306458304 8.79732631917581e-05 2.48037508732905e-20)
(-0.0436869383021982 8.32617789076236e-05 3.70380237872159e-15)
(-0.0435134075484514 7.81478604093479e-05 3.74884648278414e-15)
(-0.0432172715374057 7.26904592165184e-05 2.50451407148672e-20)
(-0.0428035960560162 6.6946991862159e-05 0)
(-0.0422780170861667 6.09755337993419e-05 0)
(-0.0416466952013164 5.48339363312581e-05 -3.71203962841212e-31)
(-0.0409162507660085 4.8578928012486e-05 3.73286857882772e-31)
(-0.0400936898933452 4.22650963291875e-05 0)
(-0.0391863214076504 3.59441241253792e-05 0)
(-0.0382016713085941 2.96640767131967e-05 -1.30801740706187e-20)
(-0.0371473962390301 2.34688916536814e-05 1.30960248684383e-20)
(-0.036031200169171 1.73979910786962e-05 -1.32339194416493e-20)
(-0.0348607552781444 1.14860281521281e-05 1.32519930880038e-20)
(-0.0336436295897349 5.76279039557663e-06 -3.99211000400374e-15)
(-0.032387222341444 2.53192643875332e-07 -2.0233205887116e-16)
(-0.0310987076680966 -5.02260859015476e-06 3.84725079930732e-15)
(-0.0297849873215999 -1.00490288724484e-05 -3.39153491866376e-21)
(-0.0284526524169912 -1.48147870001844e-05 0)
(-0.0271079540007247 -1.93126029244384e-05 0)
(-0.0257567823280132 -2.35388298843152e-05 -3.46263898525527e-21)
(-0.0244046537543679 -2.74931143060997e-05 3.46832791196806e-21)
(-0.0230567055477481 -3.11779647988906e-05 0)
(-0.0217176965232373 -3.4598448490912e-05 0)
(-0.0203920142914036 -3.77617263176901e-05 0)
(-0.0190836870708398 -4.06768131761072e-05 0)
(-0.0177964012832569 -4.33540995986872e-05 0)
(-0.0165335199792336 -4.58052745000002e-05 0)
(-0.0152981110337474 -4.80426727292084e-05 0)
(-0.0140929658645549 -5.0079675024569e-05 0)
(-0.0129206442000413 -5.19293625998776e-05 0)
(-0.011783479655198 -5.36062609278717e-05 0)
(-0.010683659022507 -5.51229657998125e-05 0)
(-0.00962318890891162 -5.64952627676339e-05 0)
(-0.00860404850759209 -5.77332519715138e-05 -4.4278798106767e-15)
(-0.00762805064860902 -5.88539450876277e-05 -8.85932767042107e-15)
(-0.00669719983381146 -5.98597807835027e-05 -4.42895309872044e-15)
(-0.00581323313131379 -6.07731882354578e-05 0)
(-0.00497852565437634 -6.15946411875867e-05 5.99308316812117e-20)
(-0.00419482616273775 -6.23674091843031e-05 -5.99917587728695e-20)
(-0.00346546351751413 -6.30641957310099e-05 -6.0311553138871e-20)
(-0.00279208445385551 -6.37463936201032e-05 6.03648994322785e-20)
(-0.00218015649962082 -6.43350861344984e-05 0)
(-0.0016305694682567 -6.49744927913333e-05 0)
(-0.0011533605273393 -6.54591296725331e-05 6.09964939281585e-20)
(-0.000746550477280228 -6.61388421161047e-05 -1.22181986189229e-19)
(-0.000430174311009017 -6.64869023674901e-05 6.11797794812734e-20)
(-0.000193017593959923 -6.73644006051971e-05 -6.14392787452805e-20)
(-7.76907834014675e-05 -6.74296448635954e-05 6.14541909899978e-20)
(-4.66500378268964e-05 -6.88060453891686e-05 -6.16927998431311e-20)
(-0.000195792522245133 -6.8149375434807e-05 1.23474181311e-19)
(-0.00041598298329781 -7.089425900556e-05 -1.23663189972943e-19)
(-0.00093022737975006 -6.85249973182065e-05 6.18481820093609e-20)
(-0.00143790622760598 -7.45809082732879e-05 0)
(-0.00245776336139626 -6.8162865999093e-05 -6.2087645508002e-20)
(-0.00318673801265303 -8.24097597287309e-05 -1.23588549892257e-22)
(-0.00488127059934829 -0.00010595661617536 6.20453397054613e-20)
(-0.00611531462044316 -0.000527567966107169 -1.2472322885477e-19)
(-0.00603869123720211 -0.000920257737285892 -1.57529905349235e-17)
(-0.00581578777486575 -0.00127105978331277 0)
(-0.0048864597680186 -0.00135325003190657 -3.08216711637246e-17)
(-0.00371951828622046 -0.00120591434867977 0)
(-0.00215273527800548 -0.000714708379394275 -2.93288198910215e-17)
(-0.000364496633152482 9.86739046687091e-05 -2.82624044388337e-17)
(0.0018129232917081 0.00134587106793528 -5.44258657573836e-17)
(0.00440013034001561 0.00305922540912068 1.04561983933351e-16)
(0.00725280931085232 0.0051290034141971 0)
(0.0103347308600329 0.00748129081345244 4.83551312171093e-17)
(0.0135808304414931 0.0100181378450001 0)
(0.0169734030985582 0.0126592922406457 0)
(0.0202803516354825 0.0151874005317864 -4.34360477698372e-17)
(0.0231678249993265 0.0174122334922768 -4.10839602946805e-20)
(0.0257422426385465 0.0194914826812944 0)
(0.0283306257908614 0.0216713720932172 0)
(0.0309574576185465 0.0240016138122837 0)
(0.0340001032388655 0.0267589248201775 0)
(0.0375962178493243 0.0300970871886669 7.17559839986882e-21)
(0.0430578537383493 0.0349081549590726 -3.18949226326023e-17)
(0.0513364935987803 0.0413790462367349 3.00541511257889e-17)
(0.0623900077581382 0.0488875762427802 0)
(0.0770832077143788 0.057214722382219 -2.174433529871e-20)
(0.0973504300767631 0.0661719794580904 7.3942356918971e-22)
(0.124653216329252 0.0738073297554916 2.33160521850614e-17)
(0.156004334873891 0.0741124894691952 -2.15432620478335e-17)
(0.167530043711157 0.055112391137694 -1.18068005191671e-21)
(0.134148855767281 0.0257246653162523 4.82031525359732e-18)
(0.0867984528748326 0.00746524884625078 -2.50765529645207e-18)
(0.0443998308880731 0.000731007216820145 6.29927117174508e-22)
(0.0274167119599786 -7.17234375021058e-05 0)
(0.109404954284074 -0.000215407179130193 0)
(0.120466792936327 -0.00141480439271968 0)
(0.0988790652541107 -0.00630531328716808 0)
(0.0251158779129525 -0.0027665064607494 -8.82841258029008e-18)
(-0.0288127903401401 0.0109973085645461 0)
(-0.0382435924018207 0.0194303430490339 0)
(-0.0275827831611461 0.0172632877419547 -3.46279852133169e-17)
(-0.0209283790971108 0.0151277955660906 0)
(-0.017556148164364 0.0138308391395344 4.08370414660511e-22)
(-0.0147294085393872 0.0121921346675354 -7.26729576243209e-17)
(-0.0126428930825047 0.0106918375196856 4.61200605581508e-21)
(-0.0108589485036113 0.00915928819913026 -3.94362965931334e-17)
(-0.00968734197447852 0.00802334668528221 4.13778072057663e-17)
(-0.00908626239503849 0.0073952896468152 -4.32953458654779e-17)
(-0.00898634626595056 0.00721156899668472 -4.52143382924707e-17)
(-0.00944093159604558 0.00750164635736755 -4.68760490510978e-17)
(-0.010511364801588 0.00828988360636562 4.85212460561501e-17)
(-0.0121847720545025 0.00955851821607013 4.88679411057892e-20)
(-0.0143522929584855 0.0112047729206243 2.49392708849998e-23)
(-0.0166924528229917 0.0129005859527134 -5.16306570842097e-20)
(-0.0190760163107721 0.0144225104456147 -5.32175768575893e-20)
(-0.0213689219983027 0.0155932906792695 5.63390733939044e-17)
(-0.0233736417005829 0.0162075661738203 -5.67830578378493e-20)
(-0.0248890567667532 0.016094353784187 0)
(-0.0257945708083191 0.0151983458695473 6.26495559010593e-17)
(-0.0262913089165824 0.0137558966534481 3.2537056985905e-17)
(-0.0264364379971653 0.0119898730350845 1.31710179760369e-19)
(-0.0260661642213666 0.00994428111917543 3.9361476319727e-15)
(-0.0252914597836802 0.00778323430257588 -6.59340389895707e-17)
(-0.0244324912457192 0.00570098294005185 -4.5616861595124e-15)
(-0.0241447900580147 0.00381881137973096 1.44577687245562e-19)
(-0.0244934386993708 0.00217957429007426 1.44268946581093e-19)
(-0.0328352704993365 0.00125261861005787 -5.27692627738923e-15)
(-0.0467443126113093 0.000919915102563566 -5.07006577490222e-15)
(-0.0577457847961414 0.000811821200191943 0)
(-0.0675992668379467 0.000699549965499805 0)
(-0.0757726081770809 0.00060289310923116 0)
(-0.0828109229546037 0.000516769175246337 0)
(-0.0887817398403301 0.000447104751996795 4.67960777095531e-31)
(-0.0939414374928477 0.000388269525776972 -6.40150703570562e-20)
(-0.098390434642622 0.00033926368263729 6.35692188500837e-20)
(-0.102247573630699 0.0002966429584556 -6.3525947898677e-20)
(-0.105574258566999 0.000259000902323405 6.31916941656874e-20)
(-0.108425158617328 0.000224605344101349 0)
(-0.110832437890574 0.000192600480259746 0)
(-0.112822012211275 0.000162199639364145 0)
(-0.114411022972151 0.000133002532043601 4.75513712183065e-15)
(-0.115613657567331 0.000104712603435914 4.71629520127308e-15)
(-0.116441312794661 7.72065297054706e-05 0)
(-0.116904854500965 5.04154247180623e-05 0)
(-0.117014830651139 2.43357687096805e-05 -4.12322396033287e-15)
(-0.116781652104704 -1.06830511988709e-06 -4.17546928853949e-15)
(-0.116214659200878 -2.57371483538712e-05 -4.84977028407705e-15)
(-0.115326406198471 -4.95016219763263e-05 -4.83786866218213e-15)
(-0.114130665924957 -7.22521083980265e-05 -3.25841132470212e-20)
(-0.112642454429849 -9.38887317017782e-05 0)
(-0.110877918619786 -0.000114320292693492 0)
(-0.108854212936283 -0.000133466691575956 4.84977131264684e-31)
(-0.106589339937058 -0.000151260824950221 -4.88712486626399e-31)
(-0.104101974377369 -0.000167650370679543 0)
(-0.101411273009318 -0.000182598418868619 3.42245789100839e-20)
(-0.0985366830818728 -0.000196083722862739 -5.16272678233485e-20)
(-0.095497753048087 -0.000208100232385712 1.73394313829482e-20)
(-0.092313953374206 -0.000218656281077001 0)
(-0.0890045095088114 -0.00022777346879492 0)
(-0.0855882515783384 -0.000235485201198359 5.35357023890278e-15)
(-0.0820834823536938 -0.000241835189690567 2.55807513342726e-16)
(-0.0785078643242852 -0.000246875794685806 -5.18646728401516e-15)
(-0.0748783269246922 -0.000250666384036029 5.36419978573571e-31)
(-0.0712109935067871 -0.000253271677107197 0)
(-0.0675211274616612 -0.000254760208298771 0)
(-0.0638230968041292 -0.000255202801274064 -5.53106325114128e-31)
(-0.0601303551781167 -0.000254671309668158 0)
(-0.0564554392468556 -0.000253237236498343 0)
(-0.0528099787187749 -0.000250970905084555 0)
(-0.0492047200717676 -0.000247940163628172 1.98225466285596e-20)
(-0.0456495603714405 -0.000244209924352149 -1.99526162440192e-20)
(-0.0421535925885249 -0.00023984099638106 0)
(-0.0387251545474111 -0.000234890134960721 -4.08179447496844e-20)
(-0.0353718960468819 -0.000229408405726366 4.10803696439483e-20)
(-0.0321008312486198 -0.000223442560161555 4.15877735083714e-20)
(-0.0289184394992111 -0.000217031302445081 -4.18478797889986e-20)
(-0.0258306946659526 -0.000210210555757972 -4.23411862560369e-20)
(-0.0228432386838365 -0.00020300325418847 4.2596011041297e-20)
(-0.0199613313583796 -0.000195434213259075 0)
(-0.0171901872072781 -0.000187502620821622 6.4628877262737e-15)
(-0.0145346956578096 -0.000179220806517354 1.30749901425312e-14)
(-0.0120002214357942 -0.0001705675185321 6.61412642539087e-15)
(-0.00959161227602163 -0.000161556601671015 -2.06117284431934e-22)
(-0.00731525206921699 -0.000152105436040598 8.93429489952031e-20)
(-0.00517620365786666 -0.000142283014663766 9.01705645786017e-20)
(-0.00318333462734966 -0.000131902165588414 -9.0578910909979e-20)
(-0.00134180395356307 -0.000120977005057627 0)
(0.000334179813803489 -0.000109134602571973 0)
(0.00184059697228322 -9.66199996152764e-05 0)
(0.00315209896157904 -8.26122389629794e-05 0)
(0.00427012385031089 -6.78685346229973e-05 0)
(0.00514554292333535 -5.05205802385868e-05 0)
(0.00579871809638046 -3.27357778277613e-05 0)
(0.0061277220209072 -1.01270580883049e-05 0)
(0.00621009107369598 1.1489049804022e-05 0)
(0.00582254389253144 4.28080597349414e-05 0)
(0.00519554658509226 6.82117583761238e-05 0)
(0.00380912351110985 0.000113591682315984 0)
(0.00232501378191704 0.000137707801179392 0)
(-0.000468836277121736 0.000202433740014536 0)
(-0.0027645847174205 0.00020707494487049 1.88364861663901e-19)
(-0.00753255604625427 0.000251506877682477 -1.68283180108854e-18)
(-0.0106484491693252 -0.000787432674732887 0)
(-0.0103021142269224 -0.00166126380949275 0)
(-0.00932143827017038 -0.00234075227991946 -4.72399746656578e-17)
(-0.00664770541491632 -0.00228953085549492 4.64872603665111e-17)
(-0.0033659106662126 -0.00159148107269807 4.55759874677452e-17)
(0.000851678274891897 2.01019212638742e-05 -4.42762444823317e-17)
(0.00561681365945828 0.00250042809738743 0)
(0.011317843816108 0.00611942284956612 8.11347638188378e-17)
(0.0179675254624921 0.0109460767675337 3.3422332781169e-21)
(0.0252519511038683 0.0167007705367955 -7.22500465580693e-20)
(0.0330949135450741 0.0231878648941918 1.3818717218326e-19)
(0.0413664686710717 0.0301607800641213 -1.3251571135257e-19)
(0.0500260941478821 0.0374090525198403 6.3706065549602e-20)
(0.0585635653408853 0.0444019280096267 6.29020767652242e-17)
(0.0662491201785833 0.0506862549642903 -6.07340287097144e-17)
(0.0732249374434657 0.0566239207824711 -2.85390487838745e-20)
(0.0801631934087995 0.0628161752437862 2.75137231447688e-20)
(0.0872030063249796 0.0694402905520369 -5.38943655850138e-17)
(0.0951728949902475 0.0771839426368738 -5.13972925313881e-17)
(0.104500969556362 0.0864933877564649 4.8733771121253e-17)
(0.118081114298651 0.0995238910418011 0)
(0.138234207863914 0.116712936070721 0)
(0.165375312685569 0.136534057674433 0)
(0.201375830199848 0.158149491603554 -3.73152040002379e-17)
(0.250328177073738 0.180638015343437 -5.36893558909914e-22)
(0.315511462174683 0.198825343567398 0)
(0.3918011379651 0.198681655687279 1.42531909255766e-17)
(0.434183661726804 0.152903241243502 0)
(0.382839799704858 0.0788929371478306 -6.28448783509564e-18)
(0.278459147674225 0.02705141765889 2.44919399404998e-21)
(0.167758425680929 0.00484307639555237 -8.74057733260472e-22)
(0.112568227451851 0.000454163084919878 0)
(0.208897013445749 -8.9439199750951e-05 0)
(0.217241577447793 -0.00222357214873797 9.92762385291369e-22)
(0.182910110936665 -0.00989451866468103 1.00040304365446e-21)
(0.0702144489247442 -0.00714944748727818 4.70520654402444e-23)
(-0.0294472111572355 0.0137249721189602 -2.16944826555517e-21)
(-0.0572736168973853 0.0292586944643298 1.8013869002333e-17)
(-0.0442598058930257 0.0272270069871589 3.52820145980396e-17)
(-0.0339093472601096 0.0241595035065176 1.08302626926496e-21)
(-0.0285128183351303 0.0222099621701174 2.47547149378367e-21)
(-0.0240974154389679 0.019736217689195 3.72888203595494e-17)
(-0.0208099384437005 0.0174213132853955 0)
(-0.0180387918401595 0.0150744043870737 4.05071821735677e-17)
(-0.0162313768086183 0.0133492063296335 -1.09015303698491e-20)
(-0.0153396362264895 0.0124351118584557 1.28362103348992e-22)
(-0.0152708151210565 0.0122485935818806 -4.63653401521886e-17)
(-0.0161012108846716 0.0128362837892314 4.80522975075468e-17)
(-0.0179216985252486 0.014226725977621 -4.95950363002999e-17)
(-0.0206920575270168 0.0163710511501357 5.09358627533752e-17)
(-0.0242144205800692 0.0190717844501584 1.02067127650443e-19)
(-0.0279991778404062 0.0218155517131719 -5.2274644010924e-20)
(-0.0318348690565579 0.0242414160173854 -5.49624058970829e-17)
(-0.0355139108364179 0.0260673130833955 5.52353970037172e-20)
(-0.0387524925409156 0.0269856060433973 -5.8415916020184e-17)
(-0.0412841857205347 0.0267609378283557 -5.89501129720688e-20)
(-0.0429907971770747 0.0253513667374797 -6.21953268597694e-17)
(-0.0441536734706539 0.0230942390961923 -3.23325387988808e-17)
(-0.0448481330273782 0.0203037932618433 5.81940412063008e-15)
(-0.0448802177328258 0.0170619970674249 2.28264568646645e-15)
(-0.0444359804114716 0.0136154599163953 2.25439905806107e-16)
(-0.0440343204688286 0.0102537217687551 4.4030277714953e-15)
(-0.0446887921728586 0.00717156956939423 -1.79762730481596e-17)
(-0.0477029079764405 0.00464545590902164 0)
(-0.0616185244869062 0.00311718642423703 1.0522005163261e-18)
(-0.0822266132000633 0.00251876171768234 0)
(-0.098544923709165 0.00217529446282794 5.98791248960847e-15)
(-0.112662799611779 0.00185143870026916 5.95797050261196e-15)
(-0.124210871414381 0.00157459432741909 5.94542680668278e-20)
(-0.133971661792041 0.00133963205157606 -1.17137141085848e-19)
(-0.142142489962369 0.00114949632791083 -1.13789006238872e-22)
(-0.149088776630209 0.00099101700862802 1.14555400108843e-19)
(-0.154977217785953 0.000858266518975093 1.45787162770205e-22)
(-0.159976241425586 0.000742862681024296 -5.63057549077887e-20)
(-0.164180138663345 0.000640366841155707 5.61432095225039e-20)
(-0.167668194206043 0.000546553592338596 -5.57044670237756e-20)
(-0.170490596446484 0.000459049748724969 0)
(-0.17268769337943 0.000375947090610784 0)
(-0.174288525135658 0.00029619756406895 0)
(-0.175317789745695 0.000219097355062078 0)
(-0.175796590000585 0.000144342359422034 5.5487122380423e-20)
(-0.175745412182709 7.17879261245842e-05 -5.53205016301842e-20)
(-0.175184668059089 1.29637229538515e-06 3.60243960480143e-15)
(-0.174131912029557 -6.72504400406051e-05 3.57487507119335e-15)
(-0.172606710856347 -0.000133536284168807 0)
(-0.170631323913299 -0.000197156324509156 0)
(-0.168229033283945 -0.000257862356145443 0)
(-0.165424366999402 -0.000315414044110048 0)
(-0.162242926389958 -0.000369593329504455 0)
(-0.158711211089185 -0.000420210803121863 2.84919573179937e-20)
(-0.154856407495103 -0.000467110428653625 -2.85414414210275e-20)
(-0.150706164912465 -0.000510173472409007 0)
(-0.146288362954463 -0.000549319893398249 -2.91128427848961e-20)
(-0.141630884287126 -0.000584508642152689 1.45428503376669e-20)
(-0.136761396528611 -0.000615736369366499 1.47445849387399e-20)
(-0.131707151079843 -0.0006430352806355 0)
(-0.126494800560978 -0.000666470263413786 1.51061693144097e-20)
(-0.121150238978452 -0.000686135273589406 -2.28317353464371e-20)
(-0.11569846534937 -0.000702149590980237 7.68366285105035e-21)
(-0.11016347103248 -0.000714653746208281 0)
(-0.104568151162655 -0.000723805469296729 1.97411056256682e-21)
(-0.0989342391422028 -0.000729775633232307 -1.98990370113875e-21)
(-0.0932822630655621 -0.000732744451673946 -2.02259897082921e-21)
(-0.087631522907607 -0.000732897752243289 2.04026700255616e-21)
(-0.0820000860283814 -0.00073042379242864 0)
(-0.0764048007342971 -0.000725509934416449 8.40503578028281e-21)
(-0.0708613236432151 -0.000718340385180063 -2.5516570247435e-20)
(-0.0653841623612669 -0.00070909312995434 -5.87067846623449e-23)
(-0.0599867290865084 -0.000697938494082656 -5.77371375088595e-23)
(-0.0546814071900524 -0.000685036452825942 1.76645249790497e-20)
(-0.0494796220164316 -0.000670536186747213 0)
(-0.0443919327365337 -0.000654572669717665 0)
(-0.0394281076709559 -0.000637268579241818 -3.68894635907995e-20)
(-0.0345972574816117 -0.000618727310031959 -1.0599088992422e-22)
(-0.0299078834341983 -0.0005990416132334 3.77755677323305e-20)
(-0.0253681043522315 -0.00057827492611932 0)
(-0.0209856026509251 -0.000556485290484817 0)
(-0.016768073998451 -0.000533688378174053 0)
(-0.0127228703366428 -0.000509913177194869 0)
(-0.00885806657382976 -0.000485194173003988 0)
(-0.00518117692557864 -0.000459547835030813 8.17998337603385e-20)
(-0.00170187516078027 -0.000432700524675129 1.87116775791532e-22)
(0.00157173136101397 -0.000404569440351787 -8.31429516659016e-20)
(0.00462635561438218 -0.000374793242757035 -8.3376988167552e-20)
(0.00745315473291746 -0.000343408714920379 1.66738504499591e-19)
(0.0100314851379197 -0.000309654291158424 -1.6699656815476e-19)
(0.0123527552755648 -0.000273769321619795 1.67355376705943e-19)
(0.0143814352145001 -0.000234159692722772 -8.3831906212546e-20)
(0.0161137289891073 -0.000191811308715226 -8.42996027230816e-20)
(0.0174828392392067 -0.000143256467995539 -1.64766254407744e-22)
(0.0185050031133927 -9.16963615828351e-05 8.49739882467194e-20)
(0.0190450711442446 -2.93950139459633e-05 0)
(0.0191857532188563 3.43627788316048e-05 0)
(0.018639772693343 0.000118610885024907 0)
(0.0176653931130036 0.000198403787279431 0)
(0.0155931156612464 0.000317496898626727 1.76610782839616e-19)
(0.0132067406632562 0.000407615591208197 -8.79491429079464e-15)
(0.0089470533465334 0.000570723716104208 -8.76626209164365e-15)
(0.00504568946362135 0.000640630211369667 1.83695318146869e-19)
(-0.00238017378666605 0.000871771757918657 1.66808649230658e-18)
(-0.00679282465343422 -0.00032713619583517 -1.86912175523707e-19)
(-0.00608635777190608 -0.00106171889759686 1.85829532931935e-19)
(-0.00417108059523462 -0.00138796874453397 4.63667128542499e-17)
(-3.28887781890219e-05 -0.000637215533059647 -1.77488002666816e-19)
(0.00495442629453976 0.00107259845359593 -4.3745426446764e-17)
(0.0111618593293672 0.00405944724139432 8.3714730461539e-17)
(0.0181553873369296 0.00828399555964733 1.55765343813107e-19)
(0.0264549342664372 0.0140817660123997 -1.48314568950399e-19)
(0.0360793355453653 0.0215231784833256 2.13389342985856e-19)
(0.0466549780369999 0.0302414970098748 -6.70949865559519e-20)
(0.0580871121055762 0.0399674818876821 6.56388975057878e-17)
(0.0702163979061733 0.0503782162392118 6.30172929261124e-17)
(0.0829768455082855 0.0611817241702817 -6.05098873062143e-17)
(0.0957005625371932 0.0717038937071539 -5.84591069366135e-17)
(0.107439165427965 0.0813908686275986 1.13175753872589e-16)
(0.118277412587842 0.0906735716043027 2.68352169861766e-20)
(0.129028393301237 0.100306816535452 5.28233042968919e-17)
(0.139954596193597 0.110601116555974 1.01495666306777e-16)
(0.152152925432414 0.122447301344158 4.85211788520109e-17)
(0.166333885337071 0.136523292666671 0)
(0.186330388252257 0.155506176313307 1.04533412808704e-20)
(0.215407157398375 0.179875687619984 -5.03514550956101e-21)
(0.254491725834002 0.207626122501267 -4.60156734142804e-21)
(0.30586053324071 0.237161272747725 -3.42362794342188e-17)
(0.374299187081169 0.266414044964623 -1.40232009627538e-21)
(0.463352259810553 0.287889844121059 2.77134934666324e-17)
(0.566875127185332 0.284222569648353 1.24390962471603e-17)
(0.636650313027104 0.224455304731735 1.16463509690362e-17)
(0.598140734679628 0.126718115449879 -5.46757258362233e-18)
(0.475420900977026 0.0503999582626322 -1.40983068291586e-21)
(0.320843944601091 0.0121904290886362 -4.04847907843766e-19)
(0.228737744563329 0.00230280128083948 0)
(0.32539549745511 0.000764062490564891 0)
(0.323861325549053 -0.00258327236266324 1.75314199895586e-21)
(0.278338783431564 -0.0129330176274056 3.53671274640177e-18)
(0.135498606855219 -0.012915724889737 0)
(-0.0138217225014622 0.0129065793667644 0)
(-0.0705174920971652 0.0367548878518013 -3.66829334059596e-17)
(-0.059447095365555 0.0360153039374785 -3.59197258918871e-17)
(-0.0461050628311651 0.032350284732098 0)
(-0.038874151598352 0.0299185881487553 3.70830175127694e-17)
(-0.0330995638985223 0.0268102045230146 4.66829708507044e-21)
(-0.0287675312229005 0.023833155896748 -4.84215953687907e-21)
(-0.0251669181406007 0.020835673800845 -4.15505823661956e-17)
(-0.0228415590189446 0.0186576889886805 -4.3665621824039e-17)
(-0.0217494828264242 0.0175672053552484 4.57229298107114e-17)
(-0.0217894940022622 0.0174753762304103 4.75096337375573e-17)
(-0.0230527060224003 0.0184437013698618 0)
(-0.0256489360315174 0.0204946011352958 -4.93525560990133e-20)
(-0.0294963353208109 0.0235314423463574 1.01829838435761e-19)
(-0.0342980085654144 0.0272463651432014 2.52502888775596e-23)
(-0.0394271291632706 0.0309638755854944 -5.26143724170004e-20)
(-0.0445979371696636 0.0341979454795322 5.50214310732508e-17)
(-0.0495458308227911 0.0365777974533833 -5.63405180141169e-17)
(-0.053939017811822 0.037725081657986 5.77766276239521e-17)
(-0.057498658570754 0.0373795962504945 5.9687642637347e-17)
(-0.0601537472185754 0.0355351335280393 -1.19939770257379e-19)
(-0.0622397472506527 0.0325895945427742 -1.00577705046629e-22)
(-0.0638460505813662 0.0289151530838919 -5.77218702657931e-15)
(-0.0647938286517379 0.0246284797485815 -5.9265222199714e-15)
(-0.0653406941215272 0.0200343745183545 3.36992468121864e-17)
(-0.0661846085755034 0.0154958294524847 1.33963446131876e-19)
(-0.0687322679219654 0.0113145990065201 1.71209930507748e-17)
(-0.0754188587020891 0.00795338883944357 8.25555641409481e-18)
(-0.0939943297230547 0.00566878712117112 1.06956315105415e-18)
(-0.118878777690105 0.00473029079918163 -1.12751579295382e-19)
(-0.138298333036235 0.00401519484626773 -5.35569795232085e-15)
(-0.154472900246192 0.00337229584199576 -5.10683569216885e-15)
(-0.167402789560935 0.00283306632191652 0)
(-0.178053684642746 0.0023875536104376 -1.00185976722693e-19)
(-0.186761416938905 0.00202779140370727 9.78824224176019e-20)
(-0.193962932375272 0.00172938789015037 0)
(-0.199877623762923 0.0014782302635951 0)
(-0.204705541453188 0.00125936356789723 0)
(-0.208566191616654 0.00106407907879695 0)
(-0.211557386677343 0.000885002970566183 0)
(-0.213745571647608 0.000717787634814222 0)
(-0.215185031623922 0.000559160873677321 0)
(-0.215917715328665 0.000407264468961717 0)
(-0.215980087198161 0.000260879385557658 4.34211185806018e-20)
(-0.215404071883657 0.000119448983603723 -4.29108617561446e-20)
(-0.214219644625433 -1.71833075847158e-05 0)
(-0.212458075101142 -0.000149150548682246 0)
(-0.210148874180665 -0.000276520158027027 4.20779655215576e-20)
(-0.207322257031807 -0.000398803044360381 1.92950069374057e-22)
(-0.204008614200564 -0.000515469397118107 -4.14099408673552e-20)
(-0.20023869762547 -0.0006261505685659 2.07212083076133e-20)
(-0.196043716736488 -0.000730492403797604 -2.05656528335743e-20)
(-0.191455197945972 -0.000828183993941193 0)
(-0.186504849843084 -0.000918966166209962 0)
(-0.181224396863467 -0.00100263806242423 0)
(-0.175645407651691 -0.00107906184819549 0)
(-0.169799119655316 -0.00114816363361705 -2.07176807978985e-20)
(-0.163716271158471 -0.00120993265814236 2.06956841477349e-20)
(-0.157426943157528 -0.00126441818830888 0)
(-0.15096041678202 -0.00131172521102407 0)
(-0.144345046907527 -0.00135200914370399 -1.05689701479962e-20)
(-0.137608155076718 -0.00138546957781204 1.05990990401668e-20)
(-0.130775941670116 -0.00141234394276384 0)
(-0.123873417388409 -0.00143290079919492 0)
(-0.116924354165197 -0.00144743326228648 0)
(-0.109951254549006 -0.00145625252139194 0)
(-0.102975338537079 -0.00145968180297037 0)
(-0.096016547021335 -0.00145805053302019 0)
(-0.0890935596555015 -0.00145168931839236 0)
(-0.0822238274463046 -0.00144092482212398 0)
(-0.0754236159473821 -0.00142607614479195 1.17344844052936e-20)
(-0.0687080616019139 -0.00140745012486657 -2.37525521727932e-20)
(-0.0620912364175577 -0.00138533893882582 1.20263858647133e-20)
(-0.0555862245357912 -0.00136001602457274 0)
(-0.0492052011570954 -0.00133173495756727 2.48565038183946e-20)
(-0.0429595329847693 -0.00130072453456685 -2.51646557854635e-20)
(-0.036859859898978 -0.0012671904961273 0)
(-0.0309162383642903 -0.00123130620851377 0)
(-0.0251381943629195 -0.00119322234738781 0)
(-0.0195349677915555 -0.00115304246252819 0)
(-0.0141154556156515 -0.00111085718120137 2.7378174937835e-20)
(-0.00888870526596907 -0.00106673961797249 -2.77784023648812e-20)
(-0.00386354030831669 -0.0010207368131284 -5.66665726114272e-20)