/*--------------------------------*- C++ -*----------------------------------*\
| =========                 |                                                 |
| \\      /  F ield         | OpenFOAM: The Open Source CFD Toolbox           |
|  \\    /   O peration     | Version:  4.1                                   |
|   \\  /    A nd           | Web:      www.OpenFOAM.org                      |
|    \\/     M anipulation  |                                                 |
\*---------------------------------------------------------------------------*/
FoamFile
{
    version     2.0;
    format      ascii;
    class       volVectorField;
    location    "30000";
    object      wallShearStress;
}
// * * * * * * * * * * * * * * * * * * * * * * * * * * * * * * * * * * * * * //

dimensions      [0 2 -2 0 0 0 0];

internalField   uniform (0 0 0);

boundaryField
{
    bottomWall
    {
        type            calculated;
        value           nonuniform List<vector> 
140
(
(-0.00321682084931962 1.24181093239911e-05 0)
(-0.0038457216761375 5.30493557986815e-05 1.43492962746861e-41)
(-0.00302753589166144 0.000217273111662133 -1.51511720778882e-22)
(-0.000147851510556211 4.55137780194203e-05 2.49879647345198e-22)
(0.00153380440351925 -0.000469276150965918 1.29206582771097e-18)
(0.00163431776193828 -0.000773148633043993 0)
(0.00112750342613647 -0.000680488353652233 9.90723587215771e-23)
(0.000852441698911962 -0.000595249302159679 -8.02804237199041e-23)
(0.000705866145374021 -0.000536218373065922 2.6415074818582e-18)
(0.0005725887772189 -0.000458808348644138 -2.64649003297021e-18)
(0.000470883898691612 -0.000387026112001484 3.24288346451082e-22)
(0.000381714512818785 -0.00031559203735957 -5.3087001984137e-18)
(0.000319679176297255 -0.000262121226674637 -6.48269430107562e-22)
(0.000282465898633043 -0.000229825488895346 2.65917423521407e-18)
(0.000264379800449816 -0.000213970545295847 -2.65987270603758e-18)
(0.000264886490686304 -0.000213527367389119 1.77546666748198e-34)
(0.000283963789772371 -0.000227578418921148 1.38426214752833e-34)
(0.000319905293654796 -0.000254403850552321 -2.6542502197085e-18)
(0.000368928270787326 -0.000290307044604475 2.65025205790924e-18)
(0.000419785850554334 -0.000325151386924844 2.59105818606635e-21)
(0.000467772256713992 -0.000352660302341194 2.59136544775065e-21)
(0.000509108837762957 -0.000368944201719023 2.64595955903012e-18)
(0.0005386271347678 -0.000369993831244316 5.1763011887546e-21)
(0.000551606797911456 -0.000353289094699816 -2.58665748909999e-21)
(0.000545663287320373 -0.000319473977790563 -1.68518870133883e-34)
(0.000529010435091988 -0.000276542451723517 -1.32523872568619e-18)
(0.000506254502169437 -0.000230999194833666 -1.33062816899842e-18)
(0.00047425583893648 -0.000183774794622108 5.17673832437703e-21)
(0.000436165820964462 -0.000137991583148286 1.08098460501618e-34)
(0.000398220614233954 -9.68984509742598e-05 2.9761636171859e-33)
(0.000375041560121135 -6.19707797628781e-05 5.18621722897803e-21)
(0.000342912627823871 -3.08411599758221e-05 3.29167239385464e-19)
(0.000483766961969001 -1.70824834535856e-05 -1.90961397548515e-16)
(0.000760876160353364 -1.29678142138522e-05 -1.92944440488404e-16)
(0.000977374136992547 -1.25727276162146e-05 2.54883284747208e-21)
(0.00117918467388503 -1.21253221218934e-05 -2.53795875406266e-21)
(0.00134850609121299 -1.16919894075091e-05 2.53386527276335e-21)
(0.00149704646715747 -1.12338587893738e-05 4.10392410484035e-24)
(0.00162437108124443 -1.08701779895133e-05 4.96078425883747e-24)
(0.00173591100288844 -1.05476380110624e-05 -5.0494863286758e-21)
(0.00183330920893032 -1.02750172076938e-05 -6.48023133354038e-24)
(0.00191908687294482 -1.00159110293552e-05 2.52410817596683e-21)
(0.00199440484847276 -9.76096044258288e-06 0)
(0.00206040145583846 -9.49110925911842e-06 -2.53973456122864e-21)
(0.00211768775523118 -9.1989289106491e-06 -8.93184190791341e-24)
(0.00216676843845675 -8.87596814604628e-06 5.09528448684854e-21)
(0.00220794205017843 -8.51903893234303e-06 1.90078350036943e-16)
(0.00224144850036673 -8.12582358298458e-06 1.9261076636178e-16)
(0.00226745992875985 -7.69654962235668e-06 -2.56738594146686e-21)
(0.00228613433498104 -7.23202932185712e-06 -2.58846353455566e-21)
(0.00229761781063239 -6.73474579085402e-06 2.58795126132818e-21)
(0.00230206156803768 -6.20721670985419e-06 -1.30561658782016e-21)
(0.00229961542280623 -5.65283773013394e-06 -1.94961117031888e-16)
(0.00229048204335789 -5.07739903842208e-06 -1.97332366477067e-16)
(0.00227489479009188 -4.48609191511464e-06 -1.3183239544523e-21)
(0.00225312031815304 -3.8839893414643e-06 -0)
(0.00222545529502584 -3.27611683664229e-06 -0)
(0.00219222400407977 -2.66738843212186e-06 1.95395715279441e-32)
(0.00215377493376182 -2.06251893817192e-06 -1.96492290434813e-32)
(0.00211047687995451 -1.46593665657682e-06 -0)
(0.00206271457464087 -8.8171982125923e-07 -2.75258225231571e-38)
(0.00201088418311862 -3.13543533489714e-07 6.88515723226268e-22)
(0.00195538874867837 2.35354121970107e-07 -6.89350080998411e-22)
(0.00189663380667269 7.62192855711518e-07 6.96609221147518e-22)
(0.00183502321948371 1.26465846954216e-06 -6.9756058570837e-22)
(0.00177095536707674 1.74089707615495e-06 2.10139277021755e-16)
(0.00170481974466796 2.18950167483595e-06 1.06504874850954e-17)
(0.00163699399807863 2.60948907618618e-06 -2.02514222606897e-16)
(0.00156784143478584 3.00027116476556e-06 1.78524454522682e-22)
(0.0014977090101527 3.3616205497917e-06 0)
(0.00142692577806553 3.69363415871202e-06 -0)
(0.00135580180008138 3.99669326127181e-06 1.82267474114238e-22)
(0.0012846274553398 4.27142612605305e-06 -1.82566929086289e-22)
(0.00121367316753044 4.5186658509934e-06 -0)
(0.00114318943825814 4.73941826473594e-06 0)
(0.00107340722866616 4.93481961633662e-06 0)
(0.00100453858121012 5.10611076786638e-06 0)
(0.000936777546043298 5.2545978876706e-06 0)
(0.000870301150689219 5.38163783436735e-06 0)
(0.000805270884824893 5.48859211147025e-06 0)
(0.000741833684681425 5.57684056435651e-06 0)
(0.000680124291292251 5.64769835207681e-06 0)
(0.000620265541363614 5.70250839090807e-06 0)
(0.000562372545397053 5.74243832947877e-06 0)
(0.000506550924362287 5.76877612143895e-06 0)
(0.000452904861059087 5.78239870530468e-06 2.33077557552697e-16)
(0.000401529769666383 5.78447808271383e-06 4.66342818536383e-16)
(0.000352531170640197 5.77525111999212e-06 2.33133937047427e-16)
(0.000306000497596635 5.75597055283977e-06 0)
(0.000262062799381391 5.72665949021158e-06 -3.15466484554395e-21)
(0.000220810091464485 5.68952756608634e-06 3.1578719391577e-21)
(0.000182417622745525 5.64274748368101e-06 3.17470563428193e-21)
(0.000146972007273343 5.58877313572113e-06 -3.17751368817461e-21)
(0.000114761153734963 5.52272230460127e-06 0)
(8.58317356635854e-05 5.45075357696275e-06 0)
(6.07123592038285e-05 5.36093357323356e-06 -3.21076018372823e-21)
(3.92984248799378e-05 5.26914458719919e-06 6.43146900748325e-21)
(2.26452041663262e-05 5.14642854489174e-06 -3.22040811319891e-21)
(1.01613289396822e-05 5.03364020953491e-06 3.23406791247105e-21)
(4.09138005605369e-06 4.85945000599221e-06 -3.23485286647916e-21)
(2.4565112821453e-06 4.72667114028366e-06 3.24741303101895e-21)
(1.03088864652412e-05 4.46268437300209e-06 -6.49948905299766e-21)
(2.18970921901116e-05 4.33867043913087e-06 6.50943838249686e-21)
(4.89703091186606e-05 3.9230399108563e-06 -3.25559232166128e-21)
(7.56883522532331e-05 3.90953968231988e-06 0)
(0.000129382472098056 3.26715876851504e-06 3.26819838597043e-21)
(0.000167793372908371 3.68241709371454e-06 6.50931669778686e-24)
(0.000257322925433526 3.9136795138238e-06 -3.2635653634449e-21)
(0.000322335471636549 2.71619075742804e-05 6.55414958211828e-21)
(0.000320559789478822 4.81291988076095e-05 8.33313917893917e-19)
(0.000313233447702424 6.74105740113669e-05 2.70833898429455e-35)
(0.000268995406579423 7.31930829756341e-05 1.6898642204807e-18)
(0.000210631130357241 6.66794973196258e-05 -4.8524406801944e-35)
(0.000126210715824555 4.03083599499124e-05 1.70731438984825e-18)
(2.25998875444454e-05 -7.00092146142649e-06 1.70704155919399e-18)
(-0.000114138079242513 -8.46790903574766e-05 3.4221573637192e-18)
(-0.000289415366343385 -0.000198831258694486 -6.84681060304171e-18)
(-0.000496783159832596 -0.000345908844706648 0)
(-0.000735672861171728 -0.000523345198083667 -3.42054611755037e-18)
(-0.0010025137422453 -0.000725963933806995 0)
(-0.00129619050887882 -0.000948647755848482 3.00926553810506e-36)
(-0.00159793813907977 -0.00117512052062163 3.39995672676262e-18)
(-0.00188313211909866 -0.00139143577551711 3.31869993918233e-21)
(-0.00216398102570724 -0.00161161630974712 2.93873587705572e-38)
(-0.00246997224544962 -0.00185795265193671 -1.24712603782552e-37)
(-0.00280733768507462 -0.00213914973730735 8.2754802297889e-35)
(-0.00321772896626042 -0.00248567439337037 1.48018248655542e-34)
(-0.00372669909950183 -0.00292216317197598 -3.31359219284926e-22)
(-0.00448388747736224 -0.00354724277272664 3.28873901982905e-18)
(-0.00558791451364468 -0.00437970363663864 -3.23552801259172e-18)
(-0.00703338929294547 -0.00534583108686401 -6.01853107621011e-36)
(-0.00890424834607986 -0.00639652382654004 1.07113764720331e-21)
(-0.0113730896011234 -0.007465337796115 -8.56450444209639e-23)
(-0.0144762300802972 -0.00826747540573999 -2.686214720431e-18)
(-0.0176535004850617 -0.00811475076190913 2.42895520777619e-18)
(-0.0182148217668584 -0.00588256229542957 1.28771856682887e-22)
(-0.0141981534924528 -0.00277225314526052 -5.11828129568555e-19)
(-0.0091152539587544 -0.000869896129119278 2.64189868438259e-19)
(-0.00466349353980348 -0.000137407325713438 -6.62574058728319e-23)
(-0.00288534118203786 -1.93570790811063e-06 0)
)
;
    }
    topWall
    {
        type            calculated;
        value           nonuniform List<vector> 
140
(
(-0.00568280073067993 2.24835485171964e-07 0)
(-0.00567703897736903 3.427006923265e-07 0)
(-0.00566721224009148 4.52501580208945e-07 0)
(-0.00565358904071433 5.53657584581976e-07 0)
(-0.00563645447354403 6.45886049746036e-07 0)
(-0.00561610308922214 7.29105669008807e-07 0)
(-0.00559283328316582 8.03374844991372e-07 0)
(-0.00556694239600524 8.6889047843804e-07 0)
(-0.00553872164030404 9.25990287674084e-07 0)
(-0.00550845118878807 9.75137718872983e-07 0)
(-0.00547639596752563 1.01689617660256e-06 0)
(-0.00544280236098705 1.05190109368953e-06 0)
(-0.00540789585956773 1.08083250359366e-06 0)
(-0.00537187960373959 1.10439020227503e-06 0)
(-0.0053349337413599 1.1232720272395e-06 0)
(-0.00529721548189117 1.13815601214579e-06 0)
(-0.00525885974417976 1.1496854212533e-06 0)
(-0.00521998028929567 1.15845757062303e-06 0)
(-0.00518067122491097 1.16501548973307e-06 0)
(-0.00514100878434162 1.16984252089469e-06 0)
(-0.00510105328890813 1.17335920507478e-06 0)
(-0.00506085121460229 1.17592238106431e-06 0)
(-0.00502043729347303 1.17782595330285e-06 0)
(-0.00497983659145938 1.17930320940644e-06 0)
(-0.00493906651295505 1.18053019265242e-06 0)
(-0.00489813869748998 1.18162988474999e-06 0)
(-0.00485706078053614 1.18267698697739e-06 0)
(-0.00481583799766485 1.18370309085471e-06 0)
(-0.00477447461973539 1.18470203226914e-06 0)
(-0.00473297521098389 1.18563534361938e-06 0)
(-0.00469134570760423 1.18643762319461e-06 0)
(-0.00464959431763497 1.18702180073067e-06 0)
(-0.0046077322462201 1.18728415387845e-06 0)
(-0.0045657742533576 1.18710907311341e-06 0)
(-0.0045237390524171 1.18637347898203e-06 0)
(-0.00448164956103358 1.18495085424443e-06 0)
(-0.00443953301673247 1.18271485680551e-06 0)
(-0.00439742097167465 1.1795424561119e-06 0)
(-0.00435534918232229 1.17531659161745e-06 0)
(-0.00431335740975464 1.16992836004856e-06 0)
(-0.00427148914635793 1.16327874258383e-06 0)
(-0.00422979128396507 1.15527990826652e-06 0)
(-0.00418831373745561 1.14585613014827e-06 0)
(-0.00414710903664808 1.13494435254576e-06 0)
(-0.00410623189804956 1.12249445020607e-06 0)
(-0.00406573878669171 1.10846921844018e-06 0)
(-0.00402568747703985 1.09284413493946e-06 0)
(-0.00398613662075395 1.07560692480561e-06 0)
(-0.00394714532794332 1.05675696053336e-06 0)
(-0.00390877276754388 1.03630453015438e-06 0)
(-0.00387107779145301 1.01426999602354e-06 0)
(-0.00383411858621385 9.90682871655999e-07 0)
(-0.00379795235520968 9.65580837481415e-07 0)
(-0.00376263503362756 9.390087136574e-07 0)
(-0.00372822103774449 9.11017412315096e-07 0)
(-0.00369476304951221 8.81662880092983e-07 0)
(-0.00366231183686396 8.51005049430028e-07 0)
(-0.00363091610965003 8.1910680941743e-07 0)
(-0.00360062241069893 7.86033006138148e-07 0)
(-0.00357147504106505 7.51849487266871e-07 0)
(-0.00354351601822916 7.16622190646275e-07 0)
(-0.00351678506567189 6.80416295198624e-07 0)
(-0.00349131963200619 6.43295426693093e-07 0)
(-0.00346715493763985 6.0532093733172e-07 0)
(-0.00344432404677367 5.66551245694938e-07 0)
(-0.00342285796236644 5.27041261475752e-07 0)
(-0.00340278574165968 4.86841870027974e-07 0)
(-0.00338413462973059 4.45999502759822e-07 0)
(-0.00336693020852792 4.0455577446827e-07 0)
(-0.0033511965588368 3.62547198726185e-07 0)
(-0.00333695643261682 3.20004972468293e-07 0)
(-0.00332423143321389 2.7695483225095e-07 0)
(-0.00331304220094488 2.33416977470337e-07 0)
(-0.00330340860184796 1.89406057854745e-07 0)
(-0.00329534991704898 1.4493122033617e-07 0)
(-0.00328888503110677 9.99961395304675e-08 0)
(-0.00328403262179068 5.45994193271128e-08 0)
(-0.0032808113193426 8.73341940265857e-09 0)
(-0.00327924000341933 -3.76138297751128e-08 0)
(-0.00327933769820991 -8.44607320857964e-08 0)
(-0.00328112434731976 -1.31838888764468e-07 0)
(-0.00328462176326396 -1.79792064134404e-07 0)
(-0.00328985320411469 -2.28362787277624e-07 0)
(-0.00329684204603983 -2.77569680437389e-07 0)
(-0.00330561119496897 -3.27399166358039e-07 0)
(-0.00331618297746325 -3.77836839041491e-07 0)
(-0.00332857968863869 -4.28896253671502e-07 0)
(-0.00334282447811338 -4.80608609572816e-07 0)
(-0.00335894157252991 -5.33005648710961e-07 0)
(-0.00337695612411441 -5.86112814494621e-07 0)
(-0.00339689395493707 -6.39947478610181e-07 0)
(-0.00341878128635313 -6.94518573092625e-07 0)
(-0.00344264444466027 -7.49825618424279e-07 0)
(-0.0034685095408747 -8.05858024028566e-07 0)
(-0.00349640210882946 -8.62593233038191e-07 0)
(-0.00352634667711838 -9.19994965036568e-07 0)
(-0.00355836627927917 -9.78011057704963e-07 0)
(-0.00359248188351295 -1.03657106190115e-06 0)
(-0.00362871174288592 -1.09558402642387e-06 0)
(-0.0036670706723795 -1.15493618948528e-06 0)
(-0.00370756924136046 -1.21448823975269e-06 0)
(-0.00375021287111173 -1.2740725351105e-06 0)
(-0.00379500084028416 -1.33349037066997e-06 0)
(-0.00384192519720034 -1.39250920953959e-06 0)
(-0.00389096958024374 -1.45086003801595e-06 0)
(-0.00394210795064018 -1.5082348863968e-06 0)
(-0.00399530324572099 -1.5642846921086e-06 0)
(-0.00405050596460268 -1.61861757545871e-06 0)
(-0.00410765270252214 -1.67079774324762e-06 0)
(-0.00416666465650575 -1.7203451438062e-06 0)
(-0.0042274461290726 -1.76673606335317e-06 0)
(-0.00428988306358453 -1.80940484502188e-06 0)
(-0.0043538416502207 -1.84774689933999e-06 0)
(-0.00441916704734469 -1.88112320986741e-06 0)
(-0.0044856822701944 -1.90886654629981e-06 0)
(-0.00455318730548909 -1.9302895884369e-06 0)
(-0.00462145851725583 -1.94469514450071e-06 0)
(-0.00469024841483434 -1.95138860552348e-06 0)
(-0.00475928585812213 -1.94969270418684e-06 0)
(-0.00482827677643331 -1.93896453779542e-06 0)
(-0.00489690547505804 -1.91861469265122e-06 0)
(-0.00496483659676138 -1.88812813188421e-06 0)
(-0.00503171779292079 -1.847086327521e-06 0)
(-0.0050971831400457 -1.79518990498477e-06 0)
(-0.00516085731185319 -1.73228086685094e-06 0)
(-0.00522236048460077 -1.6583632729392e-06 0)
(-0.00528131391517393 -1.57362109905144e-06 0)
(-0.00533734608895928 -1.47843193803431e-06 0)
(-0.00539009928965736 -1.37337519423468e-06 0)
(-0.00543923640105075 -1.25923359852504e-06 0)
(-0.00548444771131408 -1.13698706218869e-06 0)
(-0.0055254574644835 -1.00779837362746e-06 0)
(-0.00556202988479744 -8.72990570145245e-07 0)
(-0.00559397440572386 -7.34016626184064e-07 0)
(-0.00562114984995266 -5.92422292302199e-07 0)
(-0.00564346734846854 -4.49804069038376e-07 0)
(-0.00566089184856289 -3.07764077055805e-07 0)
(-0.00567344211562677 -1.67863279004292e-07 0)
(-0.00568118915826225 -3.15848334620429e-08 0)
(-0.00568425384703948 9.97230739201355e-08 0)
)
;
    }
    inlet_half0
    {
        type            cyclic;
    }
    inlet_half1
    {
        type            cyclic;
    }
    outlet_half0
    {
        type            cyclic;
    }
    outlet_half1
    {
        type            cyclic;
    }
    sideRight_half0
    {
        type            empty;
    }
    sideRight_half1
    {
        type            empty;
    }
    sideLeft_half0
    {
        type            empty;
    }
    sideLeft_half1
    {
        type            empty;
    }
}


// ************************************************************************* //
