/*--------------------------------*- C++ -*----------------------------------*\
| =========                 |                                                 |
| \\      /  F ield         | OpenFOAM: The Open Source CFD Toolbox           |
|  \\    /   O peration     | Version:  3.0.1                                 |
|   \\  /    A nd           | Web:      www.OpenFOAM.org                      |
|    \\/     M anipulation  |                                                 |
\*---------------------------------------------------------------------------*/
FoamFile
{
    version     2.0;
    format      ascii;
    class       volScalarField;
    location    "30000";
    object      yWall;
}
// * * * * * * * * * * * * * * * * * * * * * * * * * * * * * * * * * * * * * //

dimensions      [0 1 0 0 0 0 0];

internalField   nonuniform List<scalar> 
21000
(
0.00169621456475233
0.00169662180060043
0.00169486252911861
0.00168131593577665
0.00164120275611684
0.00158436267832524
0.0015498703455276
0.00154406489105906
0.00156310536859209
0.00160209155509458
0.00165868429176972
0.00173180948325188
0.00181666034057937
0.00190094363771355
0.00198255439326059
0.002061415387454
0.00213747790959355
0.00221071980522884
0.00228134052835527
0.00235441271332904
0.00243534006046316
0.0025244250496899
0.0026217160724684
0.00272710666302892
0.00284001654996139
0.00295651517813116
0.00306757878823782
0.00316898918123869
0.00325699279627774
0.00332735297195668
0.0033757205821196
0.00339820037684588
0.00339470557818421
0.0033924291295009
0.00339242912950104
0.00339242912950087
0.00339242912950087
0.00339242912950096
0.00339242912950095
0.00339242912950096
0.00339242912950096
0.00339242912950079
0.00339242912950104
0.00339242912950087
0.0033924291295009
0.00339242912950076
0.00339242912950095
0.00339242912950084
0.00339242912950096
0.00339242912950087
0.00339242912950095
0.00339242912950096
0.0033924291295009
0.00339242912950091
0.00339242912950101
0.00339242912950079
0.0033924291295009
0.00339242912950092
0.00339242912950096
0.00339242912950093
0.0033924291295009
0.00339242912950096
0.00339242912950095
0.00339242912950096
0.00339242912950096
0.0033924291295009
0.00339242912950096
0.00339242912950086
0.00339242912950097
0.00339242912950077
0.00339242912950076
0.00339242912950097
0.00339242912950088
0.00339242912950096
0.00339242912950087
0.00339242912950104
0.00339242912950088
0.00339242912950088
0.00339242912950095
0.00339242912950096
0.00339242912950096
0.00339242912950095
0.0033924291295008
0.00339242912950104
0.00339242912950087
0.00339242912950098
0.00339242912950093
0.00339242912950107
0.00339242912950088
0.00339242912950096
0.00339242912950087
0.00339242912950095
0.00339242912950096
0.00339242912950087
0.00339242912950095
0.00339242912950096
0.00339242912950087
0.00339242912950096
0.00339242912950096
0.00339242912950095
0.00339242912950088
0.00339242912950096
0.00339242912950087
0.00339242912950103
0.00339242912950088
0.00339242912950087
0.00339242912950096
0.0033947055781842
0.00339820037684611
0.00337572058211985
0.00332735297195704
0.00325699279627826
0.00316898918124003
0.00306757878823721
0.00295651517812921
0.00284001654996032
0.00272710666302846
0.00262171607246759
0.0025244250496895
0.00243534006046493
0.00235441271333068
0.00228134052835295
0.00221071980524422
0.00213747790953991
0.00206141538753221
0.00198255439320962
0.00190094363779118
0.00181666034052992
0.00173180948318986
0.0016586842918481
0.00160209155504418
0.00156310536866181
0.0015440648910097
0.00154987034549853
0.00158436267836602
0.00164120275610852
0.00168131593577463
0.00169486252912079
0.00169662180060272
0.00169621456475255
0.00514238464148007
0.00514430204510555
0.00515838399210638
0.00519593408564926
0.00526096401300065
0.00536019593643683
0.00550250890854198
0.005679996320136
0.00588306727021069
0.0061037108485041
0.00633619898105178
0.00657577082564669
0.00681708404512565
0.00705469254019036
0.00728828949644212
0.00751840530710905
0.00774560057820826
0.00797045484275763
0.00819358482771577
0.00841606328539129
0.00863778729316609
0.00885689492858231
0.00907125569671777
0.00927838577496819
0.00947528490612118
0.00965819659362461
0.0098232635826239
0.00996812092139988
0.0100905693570427
0.0101884013796896
0.0102595559574687
0.0103023010963044
0.0103170439669621
0.0103171170684023
0.0103153701491471
0.01031367147175
0.0103120210600505
0.0103104189372276
0.010308865125796
0.0103073596476029
0.0103059025238305
0.0103044937749908
0.0103031334209275
0.0103018214808125
0.0103005579731436
0.0102993429157465
0.0102981763257707
0.0102970582196898
0.0102959886132982
0.0102949675217129
0.0102939949593712
0.0102930709400293
0.0102921954767616
0.0102913685819594
0.0102905902673312
0.0102898605439006
0.0102891794220058
0.0102885469112998
0.0102879630207483
0.0102874277586297
0.010286941132535
0.0102865031493669
0.0102861138153391
0.010285773135976
0.0102854811161122
0.010285237759892
0.0102850430707701
0.0102848970515101
0.0102847997041849
0.0102847510301769
0.0102847510301769
0.0102847997041849
0.0102848970515101
0.0102850430707701
0.0102852377598919
0.010285481116112
0.0102857731359761
0.0102861138153392
0.0102865031493671
0.010286941132535
0.0102874277586294
0.0102879630207479
0.0102885469112998
0.0102891794220059
0.0102898605439007
0.0102905902673314
0.0102913685819597
0.0102921954767616
0.0102930709400291
0.0102939949593713
0.0102949675217128
0.010295988613298
0.0102970582196895
0.0102981763257711
0.0102993429157469
0.010300557973144
0.0103018214808125
0.0103031334209278
0.0103044937749908
0.0103059025238302
0.010307359647603
0.0103088651257957
0.0103104189372279
0.0103120210600502
0.0103136714717493
0.0103153701491472
0.0103171170684027
0.0103170439669621
0.0103023010963045
0.010259555957469
0.01018840137969
0.0100905693570427
0.00996812092140005
0.00982326358262429
0.0096581965936234
0.00947528490611872
0.0092783857749643
0.00907125569671965
0.00885689492858195
0.00863778729316221
0.0084160632853949
0.00819358482771502
0.00797045484275986
0.00774560057819966
0.00751840530712549
0.00728828949643005
0.00705469254022006
0.00681708404511745
0.00657577082562009
0.0063361989810815
0.0061037108484813
0.00588306727024169
0.00567999632012456
0.00550250890851727
0.00536019593645223
0.00526096401300013
0.00519593408564826
0.0051583839921064
0.005144302045108
0.00514238464148007
0.00869746726841939
0.00870075516439776
0.00872642351564132
0.00879777889774031
0.00892663413504511
0.00912179139518886
0.009385659904477
0.00970134335550564
0.0100531074118856
0.0104289342510598
0.0108202219462139
0.011219765208999
0.0116201835451169
0.0120151181193766
0.0124043242514951
0.012788565928332
0.0131686778719334
0.0135455449979254
0.0139201004965983
0.0142933834068354
0.0146645208199311
0.0150304193165778
0.0153875416301846
0.0157317500798314
0.0160580546956711
0.0163604524802828
0.016633184286402
0.0168724432287465
0.017074630212
0.01723616387107
0.0173537285078791
0.0174245617935965
0.0174494207920658
0.0174496453032855
0.0174466906870705
0.0174438176637376
0.0174410262736076
0.0174383165558828
0.0174356885486425
0.0174331422888391
0.0174306778122971
0.0174282951537105
0.0174259943466409
0.0174237754235137
0.0174216384156161
0.0174195833530957
0.0174176102649594
0.0174157191790677
0.0174139101221363
0.0174121831197318
0.0174105381962727
0.0174089753750251
0.0174074946781019
0.0174060961264614
0.0174047797399065
0.0174035455370814
0.0174023935354713
0.0174013237514028
0.01740033620004
0.0173994308953847
0.0173986078502751
0.0173978670763863
0.0173972085842279
0.0173966323831427
0.0173961384813082
0.0173957268857342
0.0173953976022627
0.0173951506355688
0.0173949859891582
0.0173949036653685
0.0173949036653685
0.0173949859891582
0.0173951506355688
0.0173953976022627
0.0173957268857342
0.0173961384813082
0.0173966323831427
0.0173972085842279
0.0173978670763865
0.0173986078502751
0.0173994308953843
0.0174003362000397
0.0174013237514028
0.0174023935354715
0.0174035455370812
0.0174047797399065
0.0174060961264617
0.0174074946781018
0.017408975375025
0.0174105381962727
0.0174121831197316
0.0174139101221362
0.0174157191790679
0.0174176102649597
0.0174195833530965
0.0174216384156165
0.0174237754235137
0.0174259943466411
0.0174282951537106
0.0174306778122969
0.0174331422888387
0.0174356885486423
0.017438316555883
0.0174410262736075
0.0174438176637373
0.0174466906870708
0.0174496453032861
0.0174494207920659
0.0174245617935966
0.0173537285078794
0.0172361638710704
0.017074630212
0.0168724432287464
0.0166331842864023
0.0163604524802827
0.0160580546956696
0.0157317500798329
0.0153875416301808
0.0150304193165813
0.0146645208199275
0.0142933834068338
0.0139201004965971
0.0135455449979332
0.0131686778719152
0.0127885659283534
0.0124043242514838
0.0120151181194073
0.0116201835451128
0.0112197652089765
0.0108202219462377
0.0104289342510416
0.0100531074119202
0.00970134335548711
0.0093856599044566
0.00912179139520112
0.00892663413504286
0.00879777889773456
0.00872642351563953
0.00870075516439743
0.00869746726841939
0.0123649087784144
0.0123696108512585
0.0124072537696509
0.0125135775815734
0.0127084874687985
0.0130028635156831
0.0133922963339888
0.0138506102560118
0.014355764838574
0.0148916377678889
0.0154466795788168
0.0160111735989002
0.0165756474386242
0.0171328139396488
0.0176824920227683
0.0182256846206159
0.018763507586038
0.0192971595474657
0.019827898987362
0.0203567268675107
0.0208819734572727
0.0213992751830158
0.0219036436615592
0.0223892350934431
0.0228490069143518
0.0232746393333391
0.0236584134036436
0.0239950350937467
0.0242794614191235
0.024506694105527
0.0246721236158721
0.0247719252267527
0.0248072174323788
0.0248075980894163
0.0248033976068105
0.0247993131221742
0.0247953446928307
0.0247914923745127
0.0247877562213553
0.0247841362858927
0.0247806326190567
0.0247772452701697
0.0247739742869451
0.024770819715481
0.0247677816002579
0.0247648599841354
0.0247620549083508
0.0247593664125141
0.0247567945346048
0.0247543393109711
0.0247520007763272
0.0247497789637505
0.0247476739046777
0.0247456856289049
0.0247438141645846
0.0247420595382228
0.024740421774679
0.0247389008971623
0.0247374969272318
0.0247362098847933
0.0247350397880991
0.0247339866537468
0.0247330504966771
0.0247322313301733
0.0247315291658602
0.0247309440137037
0.0247304758820099
0.024730124777424
0.0247298907049309
0.0247297736678536
0.0247297736678535
0.024729890704931
0.024730124777424
0.0247304758820099
0.0247309440137037
0.0247315291658602
0.0247322313301731
0.0247330504966772
0.024733986653747
0.0247350397880991
0.0247362098847932
0.0247374969272314
0.0247389008971622
0.0247404217746788
0.0247420595382228
0.0247438141645845
0.024745685628905
0.0247476739046778
0.0247497789637504
0.0247520007763273
0.0247543393109711
0.0247567945346046
0.0247593664125143
0.0247620549083513
0.0247648599841362
0.0247677816002581
0.024770819715481
0.0247739742869451
0.0247772452701696
0.0247806326190563
0.0247841362858926
0.0247877562213551
0.024791492374513
0.024795344692831
0.0247993131221738
0.0248033976068109
0.0248075980894167
0.0248072174323788
0.024771925226753
0.0246721236158723
0.0245066941055272
0.0242794614191233
0.0239950350937468
0.0236584134036432
0.0232746393333391
0.0228490069143487
0.0223892350934435
0.0219036436615589
0.0213992751830119
0.0208819734572763
0.0203567268675091
0.0198278989873604
0.0192971595474705
0.0187635075860207
0.0182256846206378
0.0176824920227629
0.0171328139396786
0.0165756474386267
0.0160111735988721
0.0154466795788392
0.0148916377678779
0.0143557648385993
0.0138506102560041
0.0133922963339654
0.0130028635156897
0.0127084874688018
0.0125135775815675
0.0124072537696445
0.0123696108512585
0.0123649087784144
0.0161482602850668
0.0161544213557997
0.016204424752439
0.0163468542405488
0.0166099778630809
0.0170067957523986
0.0175258162854021
0.0181312900832026
0.0187946821150109
0.0194956455141415
0.0202195957239754
0.0209542286372921
0.0216879172818186
0.0224124211508636
0.0231276246395308
0.0238347765332178
0.024535282172506
0.0252306633873757
0.0259225138521098
0.0266117941568744
0.0272960117320762
0.027969492788484
0.0286257519963909
0.0292571855132053
0.0298546333033401
0.0304073857966831
0.0309057030563128
0.0313427570341151
0.0317120152974276
0.0320070180144911
0.0322218210883807
0.0323515040023711
0.0323975582685693
0.0323980999920259
0.0323926142672497
0.0323872800329077
0.0323820973638638
0.032377066332902
0.0323721870107224
0.0323674594659331
0.0323628837650497
0.0323584599724864
0.032354188150555
0.0323500683594589
0.0323461006572883
0.0323422851000171
0.0323386217415
0.0323351106334662
0.0323317518255166
0.0323285453651209
0.0323254912976148
0.0323225896661965
0.032319840511922
0.0323172438737038
0.0323147997883086
0.0323125082903528
0.0323103694123011
0.0323083831844656
0.0323065496350012
0.0323048687899041
0.0323033406730118
0.0323019653060001
0.0323007427083814
0.0322996728975031
0.0322987558885468
0.0322979916945283
0.0322973803262946
0.0322969217925246
0.0322966160997278
0.0322964632522445
0.0322964632522446
0.0322966160997279
0.0322969217925247
0.0322973803262946
0.0322979916945283
0.0322987558885469
0.0322996728975029
0.0323007427083814
0.0323019653060002
0.0323033406730118
0.0323048687899038
0.0323065496350007
0.0323083831844656
0.0323103694123013
0.0323125082903528
0.0323147997883086
0.032317243873704
0.032319840511922
0.0323225896661964
0.0323254912976148
0.0323285453651206
0.0323317518255164
0.0323351106334662
0.0323386217415005
0.0323422851000179
0.0323461006572887
0.0323500683594588
0.0323541881505551
0.0323584599724864
0.0323628837650497
0.0323674594659333
0.0323721870107222
0.0323770663329026
0.0323820973638638
0.0323872800329075
0.0323926142672498
0.0323980999920259
0.0323975582685697
0.0323515040023712
0.0322218210883807
0.032007018014491
0.0317120152974274
0.0313427570341151
0.0309057030563111
0.0304073857966835
0.02985463330334
0.0292571855132017
0.0286257519963893
0.0279694927884836
0.0272960117320757
0.026611794156873
0.0259225138521078
0.0252306633873855
0.0245352821724838
0.0238347765332365
0.0231276246395273
0.0224124211509063
0.0216879172818231
0.0209542286372579
0.0202195957240008
0.0194956455141197
0.018794682115053
0.0181312900831914
0.0175258162853721
0.0170067957524078
0.0166099778630824
0.0163468542405481
0.0162044247524344
0.0161544213557994
0.0161482602850671
0.0200511851349882
0.0200588513738542
0.0201216093516335
0.0203013004571175
0.0206348266174846
0.0211373639743606
0.0217900927776716
0.0225473870832273
0.0233740170809546
0.02424528226991
0.0251434696223273
0.0260536073072992
0.0269618471920988
0.0278589672165563
0.0287449192633609
0.029621205455983
0.0304895295373353
0.0313517465636389
0.0322097958238281
0.0330645957653495
0.0339128045926273
0.0347473969252946
0.035560343186982
0.0363422238606645
0.0370816945108972
0.037765580367636
0.0383820569801015
0.0389227138670548
0.0393794821139027
0.0397443942058022
0.0400101293911996
0.0401706368147554
0.0402277928725471
0.0402285007483297
0.0402216891611278
0.0402150656785698
0.0402086303936128
0.0402023833966329
0.040196324775417
0.0401904546151566
0.0401847729984429
0.0401792800052585
0.0401739757129755
0.0401688601963488
0.0401639335275076
0.0401591957759551
0.0401546470085617
0.0401502872895596
0.0401461166805379
0.040142135240439
0.0401383430255568
0.0401347400895293
0.0401313264833359
0.0401281022552938
0.0401250674510561
0.0401222221136055
0.0401195662832539
0.0401170999976386
0.0401148232917197
0.0401127361977774
0.0401108387454097
0.0401091309615313
0.0401076128703705
0.0401062844934676
0.0401051458496741
0.0401041969551508
0.0401034378233668
0.0401028684650983
0.0401024888884288
0.0401022990987465
0.0401022990987466
0.0401024888884286
0.0401028684650984
0.0401034378233668
0.0401041969551508
0.0401051458496743
0.0401062844934675
0.0401076128703706
0.0401091309615314
0.0401108387454097
0.0401127361977771
0.0401148232917196
0.0401170999976385
0.0401195662832541
0.0401222221136055
0.040125067451056
0.0401281022552941
0.0401313264833359
0.0401347400895292
0.0401383430255566
0.0401421352404389
0.0401461166805376
0.0401502872895595
0.0401546470085621
0.0401591957759556
0.0401639335275079
0.0401688601963486
0.0401739757129758
0.0401792800052583
0.0401847729984426
0.0401904546151566
0.0401963247754172
0.0402023833966335
0.0402086303936128
0.0402150656785694
0.0402216891611281
0.0402285007483299
0.0402277928725473
0.0401706368147556
0.0400101293911993
0.0397443942058015
0.0393794821139026
0.0389227138670544
0.0383820569801006
0.0377655803676331
0.0370816945108973
0.0363422238606621
0.0355603431869811
0.0347473969252942
0.0339128045926259
0.0330645957653511
0.0322097958238227
0.0313517465636442
0.0304895295373177
0.0296212054560045
0.0287449192633595
0.0278589672165929
0.0269618471921124
0.0260536073072658
0.0251434696223513
0.0242452822698947
0.023374017080991
0.022547387083223
0.0217900927776334
0.0211373639743689
0.0206348266174885
0.0203013004571162
0.0201216093516328
0.0200588513738536
0.020051185134988
0.0240774624548855
0.0240866814651819
0.0241625990264104
0.0243807375284532
0.0247869092942037
0.0253985291134811
0.0261892054790027
0.0271031236859066
0.0280981503834557
0.029145096270645
0.0302230223525265
0.0313142055526948
0.0324025071701098
0.0334776935792923
0.0345397862553597
0.0355905485176154
0.0366319918189188
0.0376663148730201
0.0386958134160357
0.0397213621549092
0.040738743021519
0.0417395363425532
0.042714119491657
0.043651199886824
0.0445371796483804
0.0453563409522648
0.0460947091479744
0.0467422413491391
0.0472892836252536
0.0477263131692796
0.0480445891160121
0.0482368945990628
0.0483055031053372
0.0483063823840508
0.0482982030303613
0.0482902495527219
0.048282522062756
0.0482750206689868
0.0482677454768289
0.0482606965885799
0.0482538741034155
0.0482472781173795
0.0482409087233795
0.0482347660111808
0.0482288500673976
0.048223160975488
0.0482176988157509
0.0482124636653151
0.0482074555981382
0.0482026746849978
0.048198120993491
0.0481937945880273
0.0481896955298215
0.048185823876894
0.0481821796840644
0.0481787630029471
0.0481755738819475
0.0481726123662611
0.0481698784978681
0.0481673723155304
0.0481650938547894
0.0481630431479639
0.0481612202241475
0.048159625109206
0.0481582578257761
0.0481571183932634
0.0481562068278419
0.048155523142452
0.0481550673467993
0.0481548394473552
0.0481548394473551
0.0481550673467995
0.0481555231424519
0.0481562068278419
0.0481571183932636
0.048158257825776
0.0481596251092061
0.0481612202241475
0.0481630431479642
0.0481650938547894
0.0481673723155303
0.0481698784978679
0.0481726123662611
0.0481755738819476
0.048178763002947
0.0481821796840645
0.0481858238768942
0.0481896955298216
0.0481937945880268
0.0481981209934912
0.0482026746849979
0.048207455598138
0.0482124636653153
0.0482176988157512
0.0482231609754888
0.0482288500673978
0.0482347660111806
0.0482409087233792
0.0482472781173793
0.0482538741034152
0.04826069658858
0.0482677454768289
0.0482750206689872
0.0482825220627563
0.0482902495527216
0.0482982030303614
0.0483063823840511
0.0483055031053378
0.0482368945990631
0.048044589116012
0.0477263131692796
0.0472892836252529
0.0467422413491392
0.0460947091479725
0.045356340952265
0.0445371796483781
0.0436511998868213
0.0427141194916549
0.0417395363425522
0.0407387430215183
0.0397213621549049
0.0386958134160363
0.0376663148730325
0.0366319918188943
0.0355905485176349
0.0345397862553578
0.0334776935793416
0.032402507170124
0.0313142055526604
0.0302230223525454
0.0291450962706291
0.0280981503834969
0.0271031236859055
0.0261892054789683
0.0253985291134839
0.0247869092942099
0.0243807375284472
0.0241625990264064
0.0240866814651801
0.0240774624548855
0.0282309908107684
0.0282418116879904
0.0283313059019399
0.0285891119036836
0.0290702362243703
0.0297943992464165
0.0307273910757834
0.0318028862726449
0.0329716315299459
0.0341998083723739
0.0354631507182639
0.0367410977610107
0.0380151482908961
0.0392740257275809
0.0405178233221466
0.041748573758926
0.0429686058542775
0.0441804727823087
0.0453868379387313
0.0465885307492398
0.047780429053678
0.0489526748255675
0.0500940020387219
0.0511911858412137
0.0522283036821589
0.0531870143455117
0.0540511251466916
0.0548089092311559
0.0554490775783117
0.0559605029632263
0.0563329795587497
0.0565580876711518
0.0566385104546562
0.0566395665548569
0.0566299762062362
0.0566206506988421
0.0566115901635545
0.0566027947276165
0.0565942645146281
0.0565859996445345
0.0565780002336186
0.0565702663944929
0.0565627982360929
0.0565555958636688
0.0565486593787755
0.0565419888792695
0.0565355844593002
0.0565294462093035
0.0565235742159935
0.0565179685623585
0.0565126293276562
0.0565075565874068
0.0565027504133862
0.0564982108736226
0.0564939380323929
0.0564899319502149
0.0564861926838452
0.0564827202862749
0.0564795148067263
0.0564765762906479
0.0564739047797125
0.0564715003118144
0.0564693629210653
0.0564674926377937
0.0564658894885409
0.0564645534960601
0.0564634846793155
0.0564626830534797
0.0564621486299332
0.0564618814162627
0.0564618814162628
0.0564621486299331
0.0564626830534797
0.0564634846793156
0.0564645534960603
0.0564658894885409
0.0564674926377936
0.0564693629210657
0.0564715003118145
0.0564739047797127
0.0564765762906478
0.0564795148067259
0.0564827202862748
0.0564861926838453
0.0564899319502149
0.056493938032393
0.056498210873623
0.0565027504133863
0.0565075565874068
0.0565126293276563
0.0565179685623584
0.0565235742159934
0.0565294462093037
0.0565355844593008
0.0565419888792702
0.0565486593787759
0.0565555958636685
0.0565627982360931
0.0565702663944929
0.0565780002336185
0.0565859996445343
0.056594264514628
0.0566027947276169
0.056611590163554
0.0566206506988416
0.0566299762062366
0.0566395665548572
0.0566385104546565
0.0565580876711518
0.0563329795587495
0.0559605029632261
0.0554490775783113
0.0548089092311545
0.054051125146691
0.0531870143455109
0.0522283036821563
0.0511911858412138
0.0500940020387205
0.0489526748255689
0.0477804290536736
0.0465885307492373
0.0453868379387323
0.0441804727823138
0.0429686058542544
0.041748573758948
0.0405178233221495
0.0392740257276254
0.0380151482909212
0.036741097760976
0.0354631507182833
0.0341998083723548
0.032971631529989
0.0318028862726509
0.0307273910757407
0.0297943992464182
0.0290702362243798
0.0285891119036768
0.0283313059019339
0.0282418116879887
0.0282309908107684
0.0325157919828207
0.0325282653675686
0.0326317660935088
0.0329304965764584
0.0334889495737535
0.0343292213656243
0.0354090317483643
0.0366512124387203
0.037999166355415
0.0394143005413525
0.0408689172255611
0.0423395284817254
0.0438051961963719
0.0452535682227541
0.0466848118466162
0.0481012375782319
0.049505501583667
0.0509005226639327
0.0522893434611048
0.0536727465877044
0.0550446771363883
0.0563937932699429
0.0577071336188619
0.0589694799846229
0.0601625116666297
0.0612651811673249
0.0622590077513851
0.0631305273973917
0.0638667643348341
0.064454936236461
0.0648833260393006
0.0651422732338909
0.065234883607115
0.0652361221198199
0.0652250761815855
0.065214335281254
0.0652038995695693
0.065193769193088
0.0651839442941689
0.0651744250109619
0.0651652114774003
0.065156303823187
0.0651477021737921
0.0651394066504399
0.0651314173700993
0.0651237344454785
0.065116357985018
0.065109288092878
0.0651025248689346
0.0650960684087721
0.065089918803677
0.0650840761406319
0.0650785405023069
0.065073311967055
0.0650683906089089
0.0650637764975717
0.0650594696984136
0.0650554702724695
0.065051778276432
0.0650483937626477
0.0650453167791145
0.0650425473694778
0.065040085573027
0.0650379314246934
0.0650360849550468
0.0650345461902943
0.0650333151522775
0.0650323918584726
0.0650317763219867
0.0650314685515589
0.0650314685515589
0.0650317763219867
0.0650323918584727
0.0650333151522778
0.0650345461902942
0.0650360849550469
0.0650379314246934
0.0650400855730272
0.0650425473694782
0.0650453167791146
0.0650483937626474
0.0650517782764318
0.0650554702724697
0.0650594696984138
0.0650637764975716
0.065068390608909
0.0650733119670554
0.0650785405023071
0.065084076140632
0.0650899188036769
0.0650960684087721
0.0651025248689346
0.0651092880928781
0.0651163579850185
0.0651237344454793
0.0651314173700998
0.0651394066504398
0.0651477021737922
0.0651563038231874
0.0651652114774003
0.0651744250109618
0.0651839442941687
0.0651937691930883
0.0652038995695694
0.065214335281254
0.065225076181586
0.0652361221198203
0.0652348836071151
0.0651422732338909
0.0648833260393005
0.0644549362364609
0.0638667643348335
0.0631305273973919
0.0622590077513827
0.0612651811673228
0.0601625116666278
0.0589694799846212
0.0577071336188607
0.0563937932699396
0.0550446771363892
0.0536727465877046
0.0522893434610996
0.0509005226639447
0.0495055015836407
0.0481012375782515
0.0466848118466228
0.0452535682228051
0.0438051961964049
0.0423395284816835
0.0408689172255764
0.0394143005413447
0.0379991663554583
0.0366512124387276
0.0354090317483103
0.0343292213656267
0.0334889495737642
0.0329304965764523
0.0326317660935034
0.0325282653675683
0.0325157919828207
0.0369360148595489
0.0369501929891133
0.0370681434436777
0.03740909413457
0.0380473248472228
0.0390073810130944
0.0402386536899308
0.0416527891704785
0.0431856153816364
0.044793614696696
0.0464455495802212
0.0481149126715072
0.0497782521003384
0.0514221063755966
0.0530467191512124
0.0546546875113662
0.0562490052898152
0.0578329684470081
0.0594100108360935
0.0609808667097281
0.062538518878138
0.0640700947960432
0.0655608841639084
0.0669936124291408
0.0683474849401724
0.0695986624013836
0.070726303774986
0.0717151529894437
0.0725504942302369
0.0732178377782379
0.0737039075937928
0.0739977631579903
0.0741029462604636
0.0741043729542296
0.0740918254222803
0.0740796243953312
0.0740677700446188
0.0740562625366227
0.0740451020330535
0.0740342886908423
0.0740238226621283
0.0740137040942477
0.0740039331297256
0.0739945099062667
0.07398543455674
0.0739767072091759
0.073968327986756
0.0739602970078003
0.0739526143857623
0.0739452802292197
0.0739382946418691
0.0739316577225173
0.0739253695650726
0.0739194302585394
0.0739138398870142
0.0739085985296761
0.0739037062607815
0.0738991631496626
0.0738949692607185
0.073891124653412
0.0738876293822662
0.0738844834968592
0.0738816870418219
0.0738792400568336
0.0738771425766202
0.0738753946309512
0.0738739962446382
0.0738729474375319
0.0738722482245217
0.0738718986155348
0.0738718986155348
0.0738722482245216
0.0738729474375319
0.0738739962446381
0.0738753946309515
0.0738771425766204
0.0738792400568335
0.0738816870418218
0.0738844834968596
0.0738876293822662
0.0738911246534119
0.0738949692607184
0.0738991631496625
0.0739037062607816
0.073908598529676
0.0739138398870143
0.0739194302585395
0.0739253695650728
0.0739316577225174
0.0739382946418692
0.07394528022922
0.0739526143857623
0.0739602970078004
0.0739683279867563
0.0739767072091767
0.0739854345567403
0.0739945099062666
0.0740039331297259
0.0740137040942479
0.0740238226621284
0.0740342886908424
0.0740451020330539
0.0740562625366234
0.0740677700446193
0.074079624395331
0.0740918254222805
0.0741043729542298
0.0741029462604636
0.0739977631579904
0.0737039075937926
0.0732178377782376
0.072550494230236
0.0717151529894425
0.0707263037749855
0.0695986624013818
0.0683474849401697
0.0669936124291381
0.0655608841639066
0.0640700947960414
0.062538518878136
0.0609808667097228
0.0594100108360942
0.0578329684470219
0.0562490052897872
0.054654687511388
0.0530467191512156
0.0514221063756558
0.0497782521003744
0.0481149126714634
0.0464455495802416
0.0447936146966767
0.0431856153816809
0.0416527891704897
0.040238653689881
0.0390073810130906
0.0380473248472353
0.0374090941345584
0.0370681434436709
0.0369501929891126
0.0369360148595491
0.0414959394550195
0.0415118762152953
0.0416447334807778
0.0420292404462602
0.0427497739565404
0.0438334046135915
0.0452209290463847
0.0468124547325211
0.0485359958810938
0.0503429550831827
0.0521984434445803
0.0540728388752257
0.0559400963984064
0.0577856102466322
0.0589551374468614
0.0603637875099234
0.0617213161712468
0.0630181100869881
0.0642508832787819
0.0655177763408925
0.0670240824385788
0.0688917043383434
0.0711470499692176
0.0738236664809522
0.0767911481292909
0.0781955266248777
0.0794612115021913
0.0805710980200107
0.081508675340699
0.0822576924093327
0.0828032649573303
0.083133132021237
0.083251285182979
0.083252906009327
0.0832388094255981
0.0832251021245399
0.083211784298529
0.0831988561345974
0.0831863178144201
0.0831741695143011
0.083162411405163
0.0831510436525303
0.0831400664165247
0.0831294798518502
0.0831192841077801
0.0831094793281495
0.0831000656513482
0.0830910432103032
0.0830824121324741
0.0830741725398435
0.0830663245489094
0.083058868270677
0.0830518038106479
0.0830451312688146
0.0830388507396558
0.083032962312125
0.083027466069647
0.0830223620901124
0.0830176504458712
0.0830133312037274
0.0830094044249341
0.0830058701651914
0.0830027284746393
0.0829999793978558
0.0829976229738543
0.0829956592360787
0.0829940882124044
0.0829929099251324
0.0829921243909907
0.0829917316211315
0.0829917316211314
0.0829921243909907
0.0829929099251325
0.0829940882124044
0.082995659236079
0.0829976229738542
0.0829999793978559
0.0830027284746394
0.0830058701651916
0.0830094044249341
0.0830133312037273
0.0830176504458709
0.0830223620901124
0.0830274660696471
0.083032962312125
0.0830388507396558
0.083045131268815
0.083051803810648
0.0830588682706771
0.0830663245489097
0.0830741725398437
0.0830824121324741
0.0830910432103033
0.0831000656513487
0.0831094793281504
0.0831192841077804
0.0831294798518503
0.083140066416525
0.0831510436525305
0.0831624114051628
0.0831741695143011
0.0831863178144201
0.0831988561345981
0.0832117842985294
0.0832251021245395
0.0832388094255985
0.083252906009327
0.0832512851829792
0.0831331320212368
0.0828032649573301
0.0822576924093324
0.0815086753406984
0.0805710980200094
0.0794612115021895
0.0781955266248759
0.0767911481292885
0.0738236664809496
0.0711470499692143
0.0688917043383438
0.0670240824385809
0.0655177763408874
0.0642508832791033
0.0630181100862652
0.061721316171765
0.0603637875104092
0.0589551374473858
0.057785610246695
0.0559400963984483
0.0540728388751784
0.0521984434445932
0.0503429550831749
0.0485359958811406